

     ************************************************************************
     *************** Dalton - An Electronic Structure Program ***************
     ************************************************************************

    This is output from DALTON release Dalton2017.alpha (2016)
         ( Web site: http://daltonprogram.org )

   ----------------------------------------------------------------------------

    NOTE:
     
    Dalton is an experimental code for the evaluation of molecular
    properties using (MC)SCF, DFT, CI, and CC wave functions.
    The authors accept no responsibility for the performance of
    the code or for the correctness of the results.
     
    The code (in whole or part) is provided under a licence and
    is not to be reproduced for further distribution without
    the written permission of the authors or their representatives.
     
    See the home page "http://daltonprogram.org" for further information.
     
    If results obtained with this code are published,
    the appropriate citations would be both of:
     
       K. Aidas, C. Angeli, K. L. Bak, V. Bakken, R. Bast,
       L. Boman, O. Christiansen, R. Cimiraglia, S. Coriani,
       P. Dahle, E. K. Dalskov, U. Ekstroem,
       T. Enevoldsen, J. J. Eriksen, P. Ettenhuber, B. Fernandez,
       L. Ferrighi, H. Fliegl, L. Frediani, K. Hald, A. Halkier,
       C. Haettig, H. Heiberg, T. Helgaker, A. C. Hennum,
       H. Hettema, E. Hjertenaes, S. Hoest, I.-M. Hoeyvik,
       M. F. Iozzi, B. Jansik, H. J. Aa. Jensen, D. Jonsson,
       P. Joergensen, J. Kauczor, S. Kirpekar,
       T. Kjaergaard, W. Klopper, S. Knecht, R. Kobayashi, H. Koch,
       J. Kongsted, A. Krapp, K. Kristensen, A. Ligabue,
       O. B. Lutnaes, J. I. Melo, K. V. Mikkelsen, R. H. Myhre,
       C. Neiss, C. B. Nielsen, P. Norman, J. Olsen,
       J. M. H. Olsen, A. Osted, M. J. Packer, F. Pawlowski,
       T. B. Pedersen, P. F. Provasi, S. Reine, Z. Rinkevicius,
       T. A. Ruden, K. Ruud, V. Rybkin, P. Salek, C. C. M. Samson,
       A. Sanchez de Meras, T. Saue, S. P. A. Sauer,
       B. Schimmelpfennig, K. Sneskov, A. H. Steindal,
       K. O. Sylvester-Hvid, P. R. Taylor, A. M. Teale,
       E. I. Tellgren, D. P. Tew, A. J. Thorvaldsen, L. Thoegersen,
       O. Vahtras, M. A. Watson, D. J. D. Wilson, M. Ziolkowski
       and H. Agren,
       "The Dalton quantum chemistry program system",
       WIREs Comput. Mol. Sci. 2014, 4:269–284 (doi: 10.1002/wcms.1172)
     
    and
     
       Dalton, a Molecular Electronic Structure Program,
       Release Dalton2017.alpha (2016), see http://daltonprogram.org
   ----------------------------------------------------------------------------

    Authors in alphabetical order (major contribution(s) in parenthesis):

  Kestutis Aidas,           Vilnius University,           Lithuania   (QM/MM)
  Celestino Angeli,         University of Ferrara,        Italy       (NEVPT2)
  Keld L. Bak,              UNI-C,                        Denmark     (AOSOPPA, non-adiabatic coupling, magnetic properties)
  Vebjoern Bakken,          University of Oslo,           Norway      (DALTON; geometry optimizer, symmetry detection)
  Radovan Bast,             UiT The Arctic U. of Norway,  Norway      (DALTON installation and execution frameworks)
  Pablo Baudin,             University of Valencia,       Spain       (Cholesky excitation energies)
  Linus Boman,              NTNU,                         Norway      (Cholesky decomposition and subsystems)
  Ove Christiansen,         Aarhus University,            Denmark     (CC module)
  Renzo Cimiraglia,         University of Ferrara,        Italy       (NEVPT2)
  Sonia Coriani,            University of Trieste,        Italy       (CC module, MCD in RESPONS)
  Janusz Cukras,            University of Trieste,        Italy       (MChD in RESPONS)
  Paal Dahle,               University of Oslo,           Norway      (Parallelization)
  Erik K. Dalskov,          UNI-C,                        Denmark     (SOPPA)
  Thomas Enevoldsen,        Univ. of Southern Denmark,    Denmark     (SOPPA)
  Janus J. Eriksen,         Aarhus University,            Denmark     (Polarizable embedding model, TDA)
  Rasmus Faber,             University of Copenhagen,     Denmark     (Vib.avg. NMR with SOPPA, parallel AO-SOPPA)
  Berta Fernandez,          U. of Santiago de Compostela, Spain       (doublet spin, ESR in RESPONS)
  Lara Ferrighi,            Aarhus University,            Denmark     (PCM Cubic response)
  Heike Fliegl,             University of Oslo,           Norway      (CCSD(R12))
  Luca Frediani,            UiT The Arctic U. of Norway,  Norway      (PCM)
  Bin Gao,                  UiT The Arctic U. of Norway,  Norway      (Gen1Int library)
  Christof Haettig,         Ruhr-University Bochum,       Germany     (CC module)
  Kasper Hald,              Aarhus University,            Denmark     (CC module)
  Asger Halkier,            Aarhus University,            Denmark     (CC module)
  Frederik Beyer Hansen,    University of Copenhagen,     Denmark     (Parallel AO-SOPPA)
  Erik D. Hedegaard,        Univ. of Southern Denmark,    Denmark     (Polarizable embedding model, QM/MM)
  Hanne Heiberg,            University of Oslo,           Norway      (geometry analysis, selected one-electron integrals)
  Trygve Helgaker,          University of Oslo,           Norway      (DALTON; ABACUS, ERI, DFT modules, London, and much more)
  Alf Christian Hennum,     University of Oslo,           Norway      (Parity violation)
  Hinne Hettema,            University of Auckland,       New Zealand (quadratic response in RESPONS; SIRIUS supersymmetry)
  Eirik Hjertenaes,         NTNU,                         Norway      (Cholesky decomposition)
  Pi A. B. Haase,           University of Copenhagen,     Denmark     (Triplet AO-SOPPA)
  Maria Francesca Iozzi,    University of Oslo,           Norway      (RPA)
  Brano Jansik              Technical Univ. of Ostrava    Czech Rep.  (DFT cubic response)
  Hans Joergen Aa. Jensen,  Univ. of Southern Denmark,    Denmark     (DALTON; SIRIUS, RESPONS, ABACUS modules, London, and much more)
  Dan Jonsson,              UiT The Arctic U. of Norway,  Norway      (cubic response in RESPONS module)
  Poul Joergensen,          Aarhus University,            Denmark     (RESPONS, ABACUS, and CC modules)
  Maciej Kaminski,          University of Warsaw,         Poland      (CPPh in RESPONS)
  Joanna Kauczor,           Linkoeping University,        Sweden      (Complex polarization propagator (CPP) module)
  Sheela Kirpekar,          Univ. of Southern Denmark,    Denmark     (Mass-velocity & Darwin integrals)
  Wim Klopper,              KIT Karlsruhe,                Germany     (R12 code in CC, SIRIUS, and ABACUS modules)
  Stefan Knecht,            ETH Zurich,                   Switzerland (Parallel CI and MCSCF)
  Rika Kobayashi,           Australian National Univ.,    Australia   (DIIS in CC, London in MCSCF)
  Henrik Koch,              NTNU,                         Norway      (CC module, Cholesky decomposition)
  Jacob Kongsted,           Univ. of Southern Denmark,    Denmark     (Polarizable embedding model, QM/MM)
  Andrea Ligabue,           University of Modena,         Italy       (CTOCD, AOSOPPA)
  Nanna H. List             Univ. of Southern Denmark,    Denmark     (Polarizable embedding model)
  Ola B. Lutnaes,           University of Oslo,           Norway      (DFT Hessian)
  Juan I. Melo,             University of Buenos Aires,   Argentina   (LRESC, Relativistic Effects on NMR Shieldings)
  Kurt V. Mikkelsen,        University of Copenhagen,     Denmark     (MC-SCRF and QM/MM)
  Rolf H. Myhre,            NTNU,                         Norway      (Cholesky, subsystems and ECC2)
  Christian Neiss,          Univ. Erlangen-Nuernberg,     Germany     (CCSD(R12))
  Christian B. Nielsen,     University of Copenhagen,     Denmark     (QM/MM)
  Patrick Norman,           Linkoeping University,        Sweden      (Cubic response and complex frequency response in RESPONS)
  Jeppe Olsen,              Aarhus University,            Denmark     (SIRIUS CI/density modules)
  Jogvan Magnus H. Olsen,   Univ. of Southern Denmark,    Denmark     (Polarizable embedding model, QM/MM)
  Anders Osted,             Copenhagen University,        Denmark     (QM/MM)
  Martin J. Packer,         University of Sheffield,      UK          (SOPPA)
  Filip Pawlowski,          Kazimierz Wielki University,  Poland      (CC3)
  Morten N. Pedersen,       Univ. of Southern Denmark,    Denmark     (Polarizable embedding model)
  Thomas B. Pedersen,       University of Oslo,           Norway      (Cholesky decomposition)
  Patricio F. Provasi,      University of Northeastern,   Argentina   (Analysis of coupling constants in localized orbitals)
  Zilvinas Rinkevicius,     KTH Stockholm,                Sweden      (open-shell DFT, ESR)
  Elias Rudberg,            KTH Stockholm,                Sweden      (DFT grid and basis info)
  Torgeir A. Ruden,         University of Oslo,           Norway      (Numerical derivatives in ABACUS)
  Kenneth Ruud,             UiT The Arctic U. of Norway,  Norway      (DALTON; ABACUS magnetic properties and much more)
  Pawel Salek,              KTH Stockholm,                Sweden      (DALTON; DFT code)
  Claire C. M. Samson       University of Karlsruhe       Germany     (Boys localization, r12 integrals in ERI)
  Alfredo Sanchez de Meras, University of Valencia,       Spain       (CC module, Cholesky decomposition)
  Trond Saue,               Paul Sabatier University,     France      (direct Fock matrix construction)
  Stephan P. A. Sauer,      University of Copenhagen,     Denmark     (SOPPA(CCSD), SOPPA prop., AOSOPPA, vibrational g-factors)
  Bernd Schimmelpfennig,    Forschungszentrum Karlsruhe,  Germany     (AMFI module)
  Kristian Sneskov,         Aarhus University,            Denmark     (Polarizable embedding model, QM/MM)
  Arnfinn H. Steindal,      UiT The Arctic U. of Norway,  Norway      (parallel QM/MM, Polarizable embedding model)
  Casper Steinmann,         Univ. of Southern Denmark,    Denmark     (QFIT, Polarizable embedding model)
  K. O. Sylvester-Hvid,     University of Copenhagen,     Denmark     (MC-SCRF)
  Peter R. Taylor,          VLSCI/Univ. of Melbourne,     Australia   (Symmetry handling ABACUS, integral transformation)
  Andrew M. Teale,          University of Nottingham,     England     (DFT-AC, DFT-D)
  David P. Tew,             University of Bristol,        England     (CCSD(R12))
  Olav Vahtras,             KTH Stockholm,                Sweden      (triplet response, spin-orbit, ESR, TDDFT, open-shell DFT)
  David J. Wilson,          La Trobe University,          Australia   (DFT Hessian and DFT magnetizabilities)
  Hans Agren,               KTH Stockholm,                Sweden      (SIRIUS module, RESPONS, MC-SCRF solvation model)
 --------------------------------------------------------------------------------

     Date and time (Linux)  : Mon Dec 31 00:43:22 2018
     Host name              : n-62-29-15                              

 * Work memory size             :  1280000000 =  9.537 gigabytes.

 * Directories for basis set searches:
   1) /zhome/37/3/129401/NH3NH4/CCSD/AIMD_SAMPLING/nh3_4h2o_nd
   2) /zhome/9a/4/124800/source/dalton/build-mlcc/basis


Compilation information
-----------------------

 Who compiled             | rfaber
 Host                     | hpclogin1
 System                   | Linux-2.6.32-696.1.1.el6.x86_64
 CMake generator          | Unix Makefiles
 Processor                | x86_64
 64-bit integers          | ON
 MPI                      | OFF
 Fortran compiler         | /opt/intel/2016update2/compilers_and_libraries_201
                          | 6.2.181/linux/bin/intel64/ifort
 Fortran compiler version | ifort (IFORT) 16.0.2 20160204
 C compiler               | /opt/intel/2016update2/compilers_and_libraries_201
                          | 6.2.181/linux/bin/intel64/icc
 C compiler version       | icc (ICC) 16.0.2 20160204
 C++ compiler             | /opt/intel/2016update2/compilers_and_libraries_201
                          | 6.2.181/linux/bin/intel64/icpc
 C++ compiler version     | icpc (ICC) 16.0.2 20160204
 Static linking           | OFF
 Last Git revision        | bb4d1599ca5680a9f3980451fc8bbefdba436d59
 Git branch               | mlcc
 Configuration time       | 2017-06-13 16:11:03.928841


   Content of the .dal input file
 ----------------------------------

**DALTON
.RUN WAVE FUNCTIONS
*QMMM
.QMMM
**INTEGRALS
.DIPLEN
**WAVE FUNCTIONS
.CC
*PRINT
!To check the origin of excit
.PRINTL
   0 11
*SCF INP
.THRESH
1.0D-7
*CC INP
.CCSD
.THRLEQ
 1.0D-9
.THRENR
 1.0D-10
.FROIMP
4
0
.PRINT
 1
.MAX IT
 1200
.MAXRED
 1200
.MXLRV
1199
*CCSLV
.CCMM
.MXSLIT
200
.MXINIT
4 5
*CCEXCI
.NCCEXC
 15
.CVSEPARA
1
1
*CCLRSD
.DIPOLE
**END OF DALTON INPUT


   Content of the .mol file
 ----------------------------

ATOMBASIS


Atomtypes=4 Charge=0 Nosymm Angstrom
   7.00000    1    Basis=6-311G**
N          0.000000        0.000000        0.000000
   1.00000    3    Basis=6-311G**
H         -0.188840       -0.611589       -0.777438
H          0.765733       -0.317560        0.600420
H         -0.850589       -0.124763        0.545818
   8.00000    4    Basis=6-311G**
O         -1.816295       -1.884786       -2.065385
O          1.305355       -0.766631        3.107735
O          0.089523        2.466000       -1.487158
O         -3.108678        0.131518        1.197531
   1.00000    8    Basis=6-311G**
H         -1.122032       -2.285981       -2.699288
H         -2.667601       -1.767604       -2.569089
H          1.692636       -0.846772        4.036791
H          1.878491       -0.053013        2.677419
H          0.936232        2.967235       -1.317153
H          0.124097        1.622296       -0.955226
H         -3.823262        0.496196        0.574757
H         -2.612759        0.929595        1.489103


       *******************************************************************
       *********** Output from DALTON general input processing ***********
       *******************************************************************

 --------------------------------------------------------------------------------
   Overall default print level:    0
   Print level for DALTON.STAT:    1

    HERMIT 1- and 2-electron integral sections will be executed
    "Old" integral transformation used (limited to max 255 basis functions)
    Wave function sections will be executed (SIRIUS module)
 --------------------------------------------------------------------------------


 Changes of defaults for *QMMM  :
 --------------------------------

 +------------------+
 |  WORD: | CHANGE: |
 +------------------+
 |   QMMM |       T |
 +------------------+
 


   ****************************************************************************
   *************** Output of molecule and basis set information ***************
   ****************************************************************************


    The two title cards from your ".mol" input:
    ------------------------------------------------------------------------
 1:                                                                         
 2:                                                                         
    ------------------------------------------------------------------------

  Coordinates are entered in Angstrom and converted to atomic units.
          - Conversion factor : 1 bohr = 0.52917721 A

  Atomic type no.    1
  --------------------
  Nuclear charge:   7.00000
  Number of symmetry independent centers:    1
  Number of basis sets to read;    2
  The basis set is "6-311G**" from the basis set library.
  Basis set file used for this atomic type with Z =   7 :
     "/zhome/9a/4/124800/source/dalton/build-mlcc/basis/6-311G**"

  Info about the basis set file: your basis has no documentation.
  Basis set: 6-311G**                                                                        

  Atomic type no.    2
  --------------------
  Nuclear charge:   1.00000
  Number of symmetry independent centers:    3
  Number of basis sets to read;    2
  The basis set is "6-311G**" from the basis set library.
  Basis set file used for this atomic type with Z =   1 :
     "/zhome/9a/4/124800/source/dalton/build-mlcc/basis/6-311G**"

  Info about the basis set file: your basis has no documentation.
  Basis set: 6-311G**                                                                        

  Atomic type no.    3
  --------------------
  Nuclear charge:   8.00000
  Number of symmetry independent centers:    4
  Number of basis sets to read;    2
  The basis set is "6-311G**" from the basis set library.
  Basis set file used for this atomic type with Z =   8 :
     "/zhome/9a/4/124800/source/dalton/build-mlcc/basis/6-311G**"

  Info about the basis set file: your basis has no documentation.
  Basis set: 6-311G**                                                                        

  Atomic type no.    4
  --------------------
  Nuclear charge:   1.00000
  Number of symmetry independent centers:    8
  Number of basis sets to read;    2
  The basis set is "6-311G**" from the basis set library.
  Basis set file used for this atomic type with Z =   1 :
     "/zhome/9a/4/124800/source/dalton/build-mlcc/basis/6-311G**"

  Info about the basis set file: your basis has no documentation.
  Basis set: 6-311G**                                                                        


                         SYMGRP: Point group information
                         -------------------------------

@    Point group: C1 


                                 Isotopic Masses
                                 ---------------

                           N          14.003074
                           H           1.007825
                           H           1.007825
                           H           1.007825
                           O          15.994915
                           O          15.994915
                           O          15.994915
                           O          15.994915
                           H           1.007825
                           H           1.007825
                           H           1.007825
                           H           1.007825
                           H           1.007825
                           H           1.007825
                           H           1.007825
                           H           1.007825

                       Total mass:    89.068809 amu
                       Natural abundance:  98.514 %

 Center-of-mass coordinates (a.u.):   -1.323428   -0.018119    0.289784


  Atoms and basis sets
  --------------------

  Number of atom types :    4
  Total number of atoms:   16

  label    atoms   charge   prim   cont     basis
  ----------------------------------------------------------------------
  N           1    7.0000    31    18      [11s5p1d|4s3p1d]                                   
  H           3    1.0000     8     6      [5s1p|3s1p]                                        
  O           4    8.0000    31    18      [11s5p1d|4s3p1d]                                   
  H           8    1.0000     8     6      [5s1p|3s1p]                                        
  ----------------------------------------------------------------------
  total:     16   50.0000   243   156
  ----------------------------------------------------------------------
  Spherical harmonic basis used.

  Threshold for neglecting AO integrals:  1.00D-12


  Cartesian Coordinates (a.u.)
  ----------------------------

  Total number of coordinates:   48
  N       :     1  x   0.0000000000    2  y   0.0000000000    3  z   0.0000000000
  H       :     4  x  -0.3568558814    5  y  -1.1557357111    6  z  -1.4691448992
  H       :     7  x   1.4470256549    8  y  -0.6001014283    9  z   1.1346293600
  H       :    10  x  -1.6073802549   11  y  -0.2357679005   12  z   1.0314465341
  O       :    13  x  -3.4323001122   14  y  -3.5617293442   15  z  -3.9030119927
  O       :    16  x   2.4667634459   17  y  -1.4487226289   18  z   5.8727680191
  O       :    19  x   0.1691739519   20  y   4.6600646242   21  z  -2.8103213246
  O       :    22  x  -5.8745500308   23  y   0.2485330005   24  z   2.2630056162
  H       :    25  x  -2.1203331835   26  y  -4.3198780169   27  z  -5.1009150525
  H       :    28  x  -5.0410353008   29  y  -3.3402874574   30  z  -4.8548746007
  H       :    31  x   3.1986184693   32  y  -1.6001671703   33  z   7.6284294138
  H       :    34  x   3.5498335183   35  y  -0.1001800511   36  z   5.0595886319
  H       :    37  x   1.7692220695   38  y   5.6072614985   39  z  -2.4890584347
  H       :    40  x   0.2345093429   41  y   3.0656951337   42  z  -1.8051155275
  H       :    43  x  -7.2249180841   44  y   0.9376745443   45  z   1.0861333184
  H       :    46  x  -4.9373989406   47  y   1.7566799572   48  z   2.8139968419


   Interatomic separations (in Angstrom):
   --------------------------------------

            N           H           H           H           O           O     
            ------      ------      ------      ------      ------      ------
 N     :    0.000000
 H     :    1.007031    0.000000
 H     :    1.023570    1.701809    0.000000
 H     :    1.018324    1.557536    1.628695    0.000000
 O     :    3.334241    2.434840    4.028596    3.293729    0.000000
 O     :    3.456833    4.165480    2.603744    3.409327    6.144602    0.000000
 O     :    2.881113    3.170606    3.544495    3.424742    4.784958    5.748147
 O     :    3.333955    3.602522    3.945792    2.364186    4.047512    4.892774
 H     :    3.710906    2.714396    4.280936    3.908357    1.022150    6.474732
 H     :    4.103747    3.269654    4.892463    3.962714    0.996078    7.000904
 H     :    4.458444    5.174173    3.598314    4.379062    7.115239    1.009730
 H     :    3.271102    4.064714    2.371105    3.463632    6.284984    1.011389
 H     :    3.378743    3.790127    3.807366    4.027883    5.628354    5.801521
 H     :    1.886717    2.262693    2.568029    2.501072    4.158990    4.859012
 H     :    3.897934    4.032945    4.660658    3.036974    4.082566    5.857766
 H     :    3.147711    3.658940    3.709361    2.259801    4.603203    4.566045

            O           O           H           H           H           H     
            ------      ------      ------      ------      ------      ------
 O     :    0.000000
 O     :    4.783916    0.000000
 H     :    5.051579    4.997626    0.000000
 H     :    5.166789    4.241302    1.635375    0.000000
 H     :    6.637653    5.663132    7.440997    7.968516    0.000000
 H     :    5.185512    5.205379    6.549677    7.150708    1.585083    0.000000
 H     :    0.998526    5.543124    5.808875    6.080597    6.616911    5.095719
 H     :    0.997990    4.160242    4.457490    4.678627    5.785918    4.368142
 H     :    4.841643    1.015612    5.075088    4.042785    6.649389    6.101869
 H     :    4.303603    0.983807    5.486786    4.873070    5.308731    4.748572

            H           H           H           H     
            ------      ------      ------      ------
 H     :    0.000000
 H     :    1.612270    0.000000
 H     :    5.686663    4.380707    0.000000
 H     :    4.962095    3.734295    1.577714    0.000000


  Max    interatomic separation is    7.9685 Angstrom (   15.0583 Bohr)
  between atoms   11 and   10, "H     " and "H     ".

  Min HX interatomic separation is    0.9838 Angstrom (    1.8591 Bohr)

  Min YX interatomic separation is    2.8811 Angstrom (    5.4445 Bohr)


  Bond distances (Angstrom):
  --------------------------

                  atom 1     atom 2       distance
                  ------     ------       --------
  bond distance:  H          N            1.007031
  bond distance:  H          N            1.023570
  bond distance:  H          N            1.018324
  bond distance:  H          O            1.022150
  bond distance:  H          O            0.996078
  bond distance:  H          O            1.009730
  bond distance:  H          O            1.011389
  bond distance:  H          O            0.998526
  bond distance:  H          O            0.997990
  bond distance:  H          O            1.015612
  bond distance:  H          O            0.983807


  Bond angles (degrees):
  ----------------------

                  atom 1     atom 2     atom 3         angle
                  ------     ------     ------         -----
  bond angle:     H          N          H            113.874
  bond angle:     H          N          H            100.530
  bond angle:     H          N          H            105.810
  bond angle:     H          O          H            108.244
  bond angle:     H          O          H            103.305
  bond angle:     H          O          H            107.713
  bond angle:     H          O          H            104.189




 Principal moments of inertia (u*A**2) and principal axes
 --------------------------------------------------------

   IA     363.371025          0.509537   -0.021841    0.860171
   IB     508.593799          0.589318    0.737264   -0.330373
   IC     605.846778          0.626958   -0.675252   -0.388534


 Rotational constants
 --------------------

               A                   B                   C

           1390.8071            993.6791            834.1697 MHz
            0.046392            0.033146            0.027825 cm-1


@  Nuclear repulsion energy :  175.029299502118 Hartree


                     .---------------------------------------.
                     | Starting in Integral Section (HERMIT) |
                     `---------------------------------------'



 ***************************************************************************************
 ****************** Output from **INTEGRALS input processing (HERMIT) ******************
 ***************************************************************************************



    *************************************************************************
    ****************** Output from HERMIT input processing ******************
    *************************************************************************


 Default print level:        1

 * Nuclear model: Point charge

 Calculation of one- and two-electron Hamiltonian integrals.

 The following one-electron property integrals are calculated as requested:
          - overlap integrals
          - dipole length integrals

 Center of mass  (bohr):     -1.323428093650     -0.018119018060      0.289783568833
 Operator center (bohr):      0.000000000000      0.000000000000      0.000000000000
 Gauge origin    (bohr):      0.000000000000      0.000000000000      0.000000000000
 Dipole origin   (bohr):      0.000000000000      0.000000000000      0.000000000000
 
  *********************************** 
  QMMM electrostatic potential: 
  Multipole order                                    0
  Isotropic polarization  
  *********************************** 
 
  ---------------- 
  QMMM information 
  ---------------- 
 
  MM coordinates in au 
  -------------------- 
     1     -9.762004      4.355375      9.484953
     2    -11.303988      4.297581      8.503393
     3    -10.295491      5.256003     11.087707
     4    -11.383066     -6.723018      5.190475
     5     -9.861921     -7.730734      5.443315
     6    -10.888103     -4.989236      4.870531
     7     -2.416495      0.496786      7.456719
     8     -0.840117     -0.038976      6.645345
     9     -2.921583      2.014945      6.568652
    10     -6.277636      7.477469      7.585756
    11     -7.827302      6.534225      8.261820
    12     -7.042728      8.900157      6.731628
    13     -5.792099     -5.141083      0.060399
    14     -5.933145     -3.551984      0.937669
    15     -4.834012     -4.690686     -1.530578
    16      7.656070      0.654459     -0.385155
    17      6.849492     -0.371913     -1.738743
    18      9.370838      0.018361     -0.348176
    19    -11.575848      5.689691     -9.005547
    20    -13.244835      6.517304     -8.658561
    21    -10.963603      5.371312     -7.323760
    22      1.322876     -8.625154     11.373400
    23      1.015312     -6.615202     11.522074
    24      2.149666     -8.975424      9.665817
    25      8.714984     -7.415145     -7.393536
    26      8.919005     -6.164007     -8.713899
    27      7.468842     -8.677653     -7.994267
    28     -4.864580      1.568992     -8.806778
    29     -4.011376      2.473500    -10.187737
    30     -5.385194     -0.134989     -9.481793
    31      3.781385     -6.888192     -0.741530
    32      5.582982     -6.519160     -0.768434
    33      3.527115     -8.623945     -1.329343
    34     -2.127214      8.431822     -8.180503
    35     -1.753906      8.989546     -9.972516
    36     -1.728281      6.614253     -8.355921
    37     -9.850199      1.781866     -0.670607
    38     -9.108223      2.334018     -2.272471
    39    -10.775959      3.132161      0.316518
    40     -9.522275     10.302957      1.673831
    41    -11.060119     11.275151      1.270074
    42     -8.261310     10.800658      0.273394
    43      9.306684      4.248214      6.497096
    44      8.755213      5.931918      6.998718
    45      7.790035      3.389774      5.695342
    46      4.342260     -1.668494     -4.850940
    47      3.052652     -0.444775     -5.285107
    48      3.673747     -3.408833     -5.144768
    49     -5.575299    -10.704218      9.940685
    50     -6.362239    -11.017028      8.291066
    51     -6.869542    -11.239095     11.240945
    52     11.393586      5.206602      1.998023
    53     12.534909      6.659153      2.095047
    54     10.794477      4.963254      3.802690
    55     -5.132175     -4.854453      9.358810
    56     -5.795414     -4.026009     10.889900
    57     -4.972924     -6.572182      9.993922
    58      4.610820     -9.532697      7.101476
    59      4.984597    -11.161546      6.397001
    60      3.900742     -8.491133      5.704097
    61      8.983304     -7.750373      9.287768
    62      9.911425     -7.285161      7.756795
    63      7.221394     -8.358451      8.670591
    64      2.410514      7.330476      8.798933
    65      1.241588      8.571418      9.674319
    66      2.716742      5.836742      9.987346
    67     10.813438     11.314512     11.496570
    68     10.436192     12.999502     10.667385
    69     10.275943     11.326331     13.285763
    70      5.867906     10.147924      2.810435
    71      7.156136     11.484245      2.432786
    72      6.624240      9.338554      4.266293
    73     -1.114120    -10.595772     -5.185936
    74     -1.613813    -12.176496     -6.163155
    75     -2.147534    -10.954079     -3.698500
    76      0.177612      3.066315     -7.424917
    77     -1.408069      2.010009     -7.453407
    78      0.220833      3.728475     -5.708354
    79    -10.982104     -3.214702     -0.956721
    80     -9.879205     -4.228910      0.034754
    81    -10.348182     -1.433439     -0.737955
    82      7.429192      8.908553      7.919077
    83      5.639334      8.697827      8.616951
    84      8.500863      9.736504      9.188710
    85      5.267491      2.234297      3.628775
    86      4.132442      3.658069      3.303425
    87      6.250611      1.796103      2.146861
    88      3.904660      3.687961    -10.917263
    89      5.115455      4.570059     -9.704870
    90      2.448711      3.474008     -9.722201
    91      0.396043     -5.061622     -6.769708
    92      0.048479     -4.352081     -8.571801
    93      0.734266     -6.864578     -6.852572
    94      6.484257      7.884393     -8.325474
    95      6.701927      7.469445     -6.626774
    96      5.459736      9.448307     -8.399534
    97      9.121425      5.484099     -3.168661
    98      8.720769      3.745384     -3.748757
    99      9.154816      5.452680     -1.279946
   100      4.767605    -10.854209     -8.512334
   101      3.292570    -10.256592     -9.577926
   102      4.193767    -10.895114     -6.735600
   103     -3.029603     -8.546940      3.135443
   104     -1.436557     -7.724949      3.627972
   105     -3.784760     -7.282785      2.050037
   106     -0.545889     -3.206909    -11.736853
   107      1.067351     -2.258357    -12.137815
   108     -1.982018     -2.573690    -12.841058
   109      8.749220     -6.682922     -2.416064
   110      9.746822     -5.180888     -2.284484
   111      8.583728     -6.902416     -4.323132
   112     -3.749540      4.216820      3.969313
   113     -4.436317      5.659238      4.907483
   114     -1.896025      4.767210      3.859607
   115     -0.831515     10.630227     10.744703
   116     -0.445490     12.433137     11.275098
   117     -2.671780     10.672897     10.438165
   118     -4.629351      6.780770     -1.665166
   119     -2.877460      6.012852     -1.912331
   120     -5.193697      6.177290      0.016414
   121     -8.085488     -9.564573     -4.832831
   122     -7.260753    -10.708035     -5.968804
   123     -7.048467     -9.728813     -3.280266
   124      3.513723    -11.146859     -3.018769
   125      3.578028    -12.843590     -2.317322
   126      1.763772    -10.762359     -3.619285
   127     -7.859373      3.865728     -4.640687
   128     -7.064715      5.392923     -4.075765
   129     -7.198239      3.504004     -6.445563
   130      0.865591     10.819088      2.228809
   131     -0.105498     11.592113      3.590442
   132      2.674684     11.305464      2.397877
   133      4.366070     -1.274968     10.948045
   134      5.868896     -2.214971     11.399317
   135      4.522587      0.589986     11.674254
   136      9.728798     -9.959280      1.669333
   137     10.094607     -8.547254      2.810886
   138      9.652436     -9.149415     -0.052752
   139      1.124002      6.032478      3.940438
   140      1.366990      7.357734      2.581553
   141      1.818996      6.519444      5.668012
   142      8.586885      1.289045     -6.407617
   143      6.867680      0.649255     -6.605935
   144      9.272882      1.596501     -8.161561
   145      4.478492      7.749245     -1.704656
   146      5.300410      8.144967     -0.073996
   147      5.869032      6.788612     -2.620886
   148     -7.538802     10.491159     -8.865525
   149     -6.369012      9.108843     -8.640196
   150     -9.213044      9.649543     -9.048041
   151     -4.772339     11.615993     -1.063891
   152     -4.552447      9.773238     -0.962328
   153     -3.672811     12.438295      0.346680
   154     -7.185695     -2.696889    -10.244347
   155     -8.509801     -1.618533    -10.785423
   156     -7.861682     -3.213617     -8.521903
   157      8.819310     -3.861737    -11.213391
   158     10.274363     -2.705706    -11.768426
   159      9.044700     -5.322346    -12.429825
   160      2.000396     -6.429366      3.642294
   161      1.939381     -4.630528      4.027360
   162      2.721327     -6.619798      1.776603
   163     -7.654821    -10.243550      5.193451
   164     -8.135679    -11.437101      3.894164
   165     -6.037278     -9.371537      4.799959
   166     -2.647007      4.679835     10.722266
   167     -2.280916      3.386841      9.523787
   168     -3.889769      5.929316     10.013812
   169     -7.913933     -2.341630      6.120146
   170     -6.702970     -1.433597      5.087678
   171     -6.816452     -3.413512      7.249258
   172    -10.461575     -0.800832     10.287497
   173     -9.508983     -1.275132      8.714793
   174    -11.084616      0.940537     10.075290
   175     -8.384715     -4.250574     -5.690844
   176     -8.340299     -6.114972     -5.659163
   177     -9.519926     -3.747172     -4.368049
 
  MM charges 
  ---------- 
     1     -0.674440
     2      0.337220
     3      0.337220
     4     -0.674440
     5      0.337220
     6      0.337220
     7     -0.674440
     8      0.337220
     9      0.337220
    10     -0.674440
    11      0.337220
    12      0.337220
    13     -0.674440
    14      0.337220
    15      0.337220
    16     -0.674440
    17      0.337220
    18      0.337220
    19     -0.674440
    20      0.337220
    21      0.337220
    22     -0.674440
    23      0.337220
    24      0.337220
    25     -0.674440
    26      0.337220
    27      0.337220
    28     -0.674440
    29      0.337220
    30      0.337220
    31     -0.674440
    32      0.337220
    33      0.337220
    34     -0.674440
    35      0.337220
    36      0.337220
    37     -0.674440
    38      0.337220
    39      0.337220
    40     -0.674440
    41      0.337220
    42      0.337220
    43     -0.674440
    44      0.337220
    45      0.337220
    46     -0.674440
    47      0.337220
    48      0.337220
    49     -0.674440
    50      0.337220
    51      0.337220
    52     -0.674440
    53      0.337220
    54      0.337220
    55     -0.674440
    56      0.337220
    57      0.337220
    58     -0.674440
    59      0.337220
    60      0.337220
    61     -0.674440
    62      0.337220
    63      0.337220
    64     -0.674440
    65      0.337220
    66      0.337220
    67     -0.674440
    68      0.337220
    69      0.337220
    70     -0.674440
    71      0.337220
    72      0.337220
    73     -0.674440
    74      0.337220
    75      0.337220
    76     -0.674440
    77      0.337220
    78      0.337220
    79     -0.674440
    80      0.337220
    81      0.337220
    82     -0.674440
    83      0.337220
    84      0.337220
    85     -0.674440
    86      0.337220
    87      0.337220
    88     -0.674440
    89      0.337220
    90      0.337220
    91     -0.674440
    92      0.337220
    93      0.337220
    94     -0.674440
    95      0.337220
    96      0.337220
    97     -0.674440
    98      0.337220
    99      0.337220
   100     -0.674440
   101      0.337220
   102      0.337220
   103     -0.674440
   104      0.337220
   105      0.337220
   106     -0.674440
   107      0.337220
   108      0.337220
   109     -0.674440
   110      0.337220
   111      0.337220
   112     -0.674440
   113      0.337220
   114      0.337220
   115     -0.674440
   116      0.337220
   117      0.337220
   118     -0.674440
   119      0.337220
   120      0.337220
   121     -0.674440
   122      0.337220
   123      0.337220
   124     -0.674440
   125      0.337220
   126      0.337220
   127     -0.674440
   128      0.337220
   129      0.337220
   130     -0.674440
   131      0.337220
   132      0.337220
   133     -0.674440
   134      0.337220
   135      0.337220
   136     -0.674440
   137      0.337220
   138      0.337220
   139     -0.674440
   140      0.337220
   141      0.337220
   142     -0.674440
   143      0.337220
   144      0.337220
   145     -0.674440
   146      0.337220
   147      0.337220
   148     -0.674440
   149      0.337220
   150      0.337220
   151     -0.674440
   152      0.337220
   153      0.337220
   154     -0.674440
   155      0.337220
   156      0.337220
   157     -0.674440
   158      0.337220
   159      0.337220
   160     -0.674440
   161      0.337220
   162      0.337220
   163     -0.674440
   164      0.337220
   165      0.337220
   166     -0.674440
   167      0.337220
   168      0.337220
   169     -0.674440
   170      0.337220
   171      0.337220
   172     -0.674440
   173      0.337220
   174      0.337220
   175     -0.674440
   176      0.337220
   177      0.337220
 
  MM isotropic polarizabilities in au 
  ----------------------------------- 
     1      5.739350
     2      2.308390
     3      2.308390
     4      5.739350
     5      2.308390
     6      2.308390
     7      5.739350
     8      2.308390
     9      2.308390
    10      5.739350
    11      2.308390
    12      2.308390
    13      5.739350
    14      2.308390
    15      2.308390
    16      5.739350
    17      2.308390
    18      2.308390
    19      5.739350
    20      2.308390
    21      2.308390
    22      5.739350
    23      2.308390
    24      2.308390
    25      5.739350
    26      2.308390
    27      2.308390
    28      5.739350
    29      2.308390
    30      2.308390
    31      5.739350
    32      2.308390
    33      2.308390
    34      5.739350
    35      2.308390
    36      2.308390
    37      5.739350
    38      2.308390
    39      2.308390
    40      5.739350
    41      2.308390
    42      2.308390
    43      5.739350
    44      2.308390
    45      2.308390
    46      5.739350
    47      2.308390
    48      2.308390
    49      5.739350
    50      2.308390
    51      2.308390
    52      5.739350
    53      2.308390
    54      2.308390
    55      5.739350
    56      2.308390
    57      2.308390
    58      5.739350
    59      2.308390
    60      2.308390
    61      5.739350
    62      2.308390
    63      2.308390
    64      5.739350
    65      2.308390
    66      2.308390
    67      5.739350
    68      2.308390
    69      2.308390
    70      5.739350
    71      2.308390
    72      2.308390
    73      5.739350
    74      2.308390
    75      2.308390
    76      5.739350
    77      2.308390
    78      2.308390
    79      5.739350
    80      2.308390
    81      2.308390
    82      5.739350
    83      2.308390
    84      2.308390
    85      5.739350
    86      2.308390
    87      2.308390
    88      5.739350
    89      2.308390
    90      2.308390
    91      5.739350
    92      2.308390
    93      2.308390
    94      5.739350
    95      2.308390
    96      2.308390
    97      5.739350
    98      2.308390
    99      2.308390
   100      5.739350
   101      2.308390
   102      2.308390
   103      5.739350
   104      2.308390
   105      2.308390
   106      5.739350
   107      2.308390
   108      2.308390
   109      5.739350
   110      2.308390
   111      2.308390
   112      5.739350
   113      2.308390
   114      2.308390
   115      5.739350
   116      2.308390
   117      2.308390
   118      5.739350
   119      2.308390
   120      2.308390
   121      5.739350
   122      2.308390
   123      2.308390
   124      5.739350
   125      2.308390
   126      2.308390
   127      5.739350
   128      2.308390
   129      2.308390
   130      5.739350
   131      2.308390
   132      2.308390
   133      5.739350
   134      2.308390
   135      2.308390
   136      5.739350
   137      2.308390
   138      2.308390
   139      5.739350
   140      2.308390
   141      2.308390
   142      5.739350
   143      2.308390
   144      2.308390
   145      5.739350
   146      2.308390
   147      2.308390
   148      5.739350
   149      2.308390
   150      2.308390
   151      5.739350
   152      2.308390
   153      2.308390
   154      5.739350
   155      2.308390
   156      2.308390
   157      5.739350
   158      2.308390
   159      2.308390
   160      5.739350
   161      2.308390
   162      2.308390
   163      5.739350
   164      2.308390
   165      2.308390
   166      5.739350
   167      2.308390
   168      2.308390
   169      5.739350
   170      2.308390
   171      2.308390
   172      5.739350
   173      2.308390
   174      2.308390
   175      5.739350
   176      2.308390
   177      2.308390


     ************************************************************************
     ************************** Output from HERINT **************************
     ************************************************************************



                      Nuclear contribution to dipole moments
                      --------------------------------------

                 au               Debye          C m (/(10**-30)

      x    -64.45601455      -163.83083700      -546.48084909
      y     -0.79964139        -2.03248555        -6.77964203
      z     14.41463813        36.63835324       122.21239149


  Time used in HUCKEL     is       1.64 seconds
  Time used in OVERLAP    is       0.12 seconds
  Time used in POPOVLP    is       0.21 seconds
  Time used in DIPLEN     is       0.17 seconds
  Time used in QUADRUP    is       0.58 seconds
  Time used in KINENE     is       0.25 seconds

 Threshold for neglecting two-electron integrals:  1.00D-12
 HERMIT - Number of two-electron integrals written:    25146398 ( 33.5% )
 HERMIT - Megabytes written:                            287.940

  Time used in TWOINT     is      13.41 seconds
  Total CPU  time used in HERMIT:  16.44 seconds
  Total wall time used in HERMIT:   5.52 seconds


                        .----------------------------------.
                        | End of Integral Section (HERMIT) |
                        `----------------------------------'



                   .--------------------------------------------.
                   | Starting in Wave Function Section (SIRIUS) |
                   `--------------------------------------------'

NCCEXCI for singlet:   15
 CCSD_INPUT: core-val requested
 Requested number of core orbs per sym
                     1
 Indices of requested core orbs
                     1

 *** Output from Huckel module :

     Using EWMO model:          T
     Using EHT  model:          F
     Number of Huckel orbitals each symmetry:   36

 EWMO - Energy Weighted Maximum Overlap - is a Huckel type method,
        which normally is better than Extended Huckel Theory.
 Reference: Linderberg and Ohrn, Propagators in Quantum Chemistry (Wiley, 1973)

 Huckel EWMO eigenvalues for symmetry :  1
          -20.684384     -20.684345     -20.684216     -20.684197     -15.673970
           -1.680001      -1.586590      -1.581639      -1.576882      -1.474200
           -0.815844      -0.792087      -0.790277      -0.780131      -0.723034
           -0.702180      -0.691683      -0.689806      -0.685062      -0.667104
           -0.616171      -0.615026      -0.610110      -0.597898      -0.519237
           -0.258786      -0.249306      -0.244847      -0.233660      -0.186907
           -0.183769      -0.183482      -0.178520      -0.158957      -0.148752
           -0.142741

 **********************************************************************
 *SIRIUS* a direct, restricted step, second order MCSCF program       *
 **********************************************************************

 
     Date and time (Linux)  : Mon Dec 31 00:43:28 2018
     Host name              : n-62-29-15                              

 Title lines from ".mol" input file:
                                                                             
                                                                             

 Print level on unit LUPRI =   2 is   0
 Print level on unit LUW4  =   2 is  11

@    (Integral direct) CC calculation.

@    This is a combination run starting with
@              a restricted, closed shell Hartree-Fock calculation


 Initial molecular orbitals are obtained according to
 ".MOSTART EWMO  " input option

@    QM part is embedded in an environment :

@         Model: QMMM

     Wave function specification
     ============================

     For the specification of the Coupled Cluster: see later.

@    Wave function type        --- CC ---
@    Number of closed shell electrons          50
@    Number of electrons in active shells       0
@    Total charge of the molecule               0

@    Spin multiplicity and 2 M_S                1         0
@    Total number of symmetries                 1 (point group: C1 )
@    Reference state symmetry                   1 (irrep name : A  )

     Orbital specifications
     ======================
@    Abelian symmetry species          All |    1
@                                          |  A  
                                       --- |  ---
@    Occupied SCF orbitals              25 |   25
@    Secondary orbitals                131 |  131
@    Total number of orbitals          156 |  156
@    Number of basis functions         156 |  156

     Optimization information
     ========================
@    Number of configurations                 1
@    Number of orbital rotations           3275
     ------------------------------------------
@    Total number of variables             3276

     Maximum number of Fock   iterations      0
     Maximum number of DIIS   iterations     60
     Maximum number of QC-SCF iterations     60
     Threshold for SCF convergence     1.00D-07


 Changes of defaults for CC:
 ---------------------------


 -Implicit frozen core calculation
 -Excitation energies calculated
 -One-photon absorption strengths will be calculated
 -Oscillator strengths calculated
  
* Read MO coefficients from SIRIUS.RST with label "NEWORB  " and header info: 31Dec18  REORTHO 


 ***********************************************
 ***** DIIS acceleration of SCF iterations *****
 ***********************************************

 C1-DIIS algorithm; max error vectors =    8
 -----------------------------------------------------------------------------

 *** DIIS iteration number    1
 RDSUPM called. NFMAT, ISYMDM(1:NFMAT)                     1
                     1

Calculating AOSUPINT
     (Precalculated two-electron integrals are transformed to P-supermatrix elements.
      Threshold for discarding integrals :  1.00D-12 )
  CPU  time used in FORMSUP    is   6.41 seconds
  WALL time used in FORMSUP    is   6.32 seconds

 ITDIIS, energy, error norm, change in energy, scr.thr., difden:
@ DIIS iter.   1    -359.996475728        3.72411D+00   -3.60D+02  -20    F

 (DIIS_RED) Control Parameters C2DIIS =         F NEVC =    1


 (DIIS_RED) B matrix:

               Column   1
       1      13.86901642
    ==== End of matrix output ====

 DIIS C vector; C2DIIS = F, LAMBDA = -1.39D+01
    1.000000
* Read MO coefficients from SIRIUS.RST with label "NEWORB  " and header info: 31Dec18  DIIS   1
      Virial theorem: -V/T =      1.998959
@      MULPOP N      -0.40; H       0.17; H       0.17; H       0.17; O      -0.62; O      -0.64; O      -0.80; O      -0.64; H       0.32; H       0.32; 
@             H       0.31; H       0.33; H       0.33; H       0.32; H       0.33; H       0.34; 
   1  Level shift: doubly occupied orbital energies shifted by -2.00D-01

 DIIS Fock eigenvalues in symmetry 1
      -20.72231      -20.68870      -20.68252      -20.60801      -15.97104
       -1.53501       -1.50846       -1.50314       -1.49969       -1.43753
       -0.95108       -0.92634       -0.91711       -0.89531       -0.88200
       -0.87787       -0.79372       -0.77580       -0.76603       -0.75999
       -0.75043       -0.72668       -0.71949       -0.71878       -0.71532
        0.11087        0.15555        0.18133        0.19561        0.22464
        0.25698        0.27307        0.27989        0.30900        0.32445
        0.34699        0.41542        0.45546        0.51199        0.52742
        0.56004        0.57785        0.57970        0.59088        0.59551
        0.62238        0.62744        0.85220        0.87772        0.90840
        0.94226        0.95939        0.97674        0.98374        1.00052
        1.03482        1.06246        1.08134        1.09564        1.09990
        1.13397        1.14719        1.21884        1.25187        1.29739
        1.31689        1.33471        1.37435        1.45876        1.46912
        1.48694        1.48983        1.49439        1.49964        1.52211
        1.55052        1.59121        1.66710        1.68483        1.69100
        1.70132        1.74634        1.77470        1.80207        1.85543
        1.87149        1.88053        1.91872        1.93506        2.09539
        2.11808        2.17228        2.18878        2.20511        2.26334
        2.27861        2.31331        2.35192        2.38734        2.49720
        2.57301        2.58107        2.59267        2.60425        2.65764
        2.68851        2.74898        2.77184        2.79008        2.80914
        2.81603        2.85697        2.90555        3.07156        3.28524
        3.36883        3.38707        3.44073        3.44264        3.45021
        3.46910        3.48451        3.50272        3.53283        3.59240
        3.63717        3.64743        3.65997        3.96197        3.97409
        3.97846        4.02331        4.15132        4.20052        4.21357
        4.22433        4.41289        4.98453        5.09742        5.31285
        5.33091        5.36535        5.39599        5.69966        5.72593
        5.73145        5.75557        6.04144        6.04173        6.07677
        6.17474       36.80427       51.52702       51.56011       51.56777
       51.68519
 Time used in FCKEIG, thr_jaco:   4.19D-01  4.30D-02  1.63D-04
 CPU and wall times used in FCKEIG, THR_FCKEIG:   4.20D-01  4.30D-02  3.72D-02
 -----------------------------------------------------------------------------

 *** DIIS iteration number    2
 RDSUPM called. NFMAT, ISYMDM(1:NFMAT)                     1
                     1

 ITDIIS, energy, error norm, change in energy, scr.thr., difden:
@ DIIS iter.   2    -360.767501013        9.03656D-01   -7.71D-01  -20    F

 (DIIS_RED) Control Parameters C2DIIS =         F NEVC =    2


 (DIIS_RED) B matrix:

               Column   1     Column   2
       1      13.86901642
       2       0.99481052     0.81659415
    ==== End of matrix output ====

 DIIS C vector; C2DIIS = F, LAMBDA = -8.14D-01
   -0.014037    1.014037
* Read MO coefficients from SIRIUS.RST with label "NEWORB  " and header info: 31Dec18  DIIS   2
      Virial theorem: -V/T =      2.004588
@      MULPOP N      -0.66; H       0.23; H       0.23; H       0.22; O      -0.62; O      -0.60; O      -0.70; O      -0.62; H       0.33; H       0.30; 
@             H       0.30; H       0.31; H       0.31; H       0.31; H       0.31; H       0.34; 
   2  Level shift: doubly occupied orbital energies shifted by -5.00D-02

 DIIS Fock eigenvalues in symmetry 1
      -20.67119      -20.62752      -20.60625      -20.59624      -15.48155
       -1.39670       -1.37732       -1.35112       -1.35020       -1.15685
       -0.76026       -0.74323       -0.70998       -0.70855       -0.66816
       -0.65716       -0.63807       -0.63230       -0.61222       -0.61099
       -0.60029       -0.57678       -0.55213       -0.54387       -0.46416
        0.15266        0.18720        0.21143        0.21663        0.25413
        0.27992        0.30574        0.31053        0.33821        0.35494
        0.37190        0.48013        0.51072        0.55047        0.56424
        0.59748        0.61109        0.61392        0.62350        0.63547
        0.66463        0.68818        0.92996        0.93885        0.95636
        0.96517        0.98012        0.99019        1.01608        1.03919
        1.06383        1.08229        1.10939        1.11775        1.12481
        1.13646        1.16304        1.28316        1.33679        1.34184
        1.35258        1.39858        1.40917        1.49529        1.51548
        1.53071        1.53252        1.54582        1.55268        1.57059
        1.58901        1.62761        1.72098        1.73211        1.73554
        1.75373        1.82684        1.84839        1.87447        1.92541
        1.93385        1.94146        1.99443        2.00834        2.20666
        2.21833        2.22958        2.23748        2.25273        2.28625
        2.33708        2.37217        2.41110        2.48192        2.57585
        2.63044        2.64289        2.64863        2.65933        2.73465
        2.76830        2.81735        2.81984        2.87318        2.88187
        2.91423        2.99835        3.04815        3.21287        3.40096
        3.40496        3.45612        3.45781        3.46991        3.48668
        3.49313        3.50108        3.52540        3.57139        3.62188
        3.62930        3.65835        3.67433        3.98228        3.98985
        3.99492        3.99964        4.16931        4.18433        4.23118
        4.23846        4.60387        5.19381        5.26931        5.29958
        5.31864        5.33337        5.39663        5.63942        5.69906
        5.71834        5.75341        6.04700        6.05668        6.09098
        6.10370       37.13804       51.47276       51.47817       51.48941
       51.51330
 Time used in FCKEIG, thr_jaco:   3.11D-01  3.10D-02  3.95D-05
 CPU and wall times used in FCKEIG, THR_FCKEIG:   3.11D-01  3.10D-02  9.04D-03
 -----------------------------------------------------------------------------

 *** DIIS iteration number    3
 RDSUPM called. NFMAT, ISYMDM(1:NFMAT)                     1
                     1

 ITDIIS, energy, error norm, change in energy, scr.thr., difden:
@ DIIS iter.   3    -360.827559514        3.26814D-01   -6.01D-02  -20    F

 (DIIS_RED) Control Parameters C2DIIS =         F NEVC =    3


 (DIIS_RED) B matrix:

               Column   1     Column   2     Column   3
       1      13.86901642
       2       0.99481052     0.81659415
       3       0.58261599     0.07761570     0.10680768
    ==== End of matrix output ====

 DIIS C vector; C2DIIS = F, LAMBDA = -8.64D-02
   -0.039228    0.060542    0.978686
* Read MO coefficients from SIRIUS.RST with label "NEWORB  " and header info: 31Dec18  DIIS   3
      Virial theorem: -V/T =      2.002696
@      MULPOP N      -0.59; H       0.20; H       0.20; H       0.20; O      -0.68; O      -0.66; O      -0.78; O      -0.69; H       0.37; H       0.33; 
@             H       0.33; H       0.34; H       0.36; H       0.34; H       0.34; H       0.37; 
   3  Level shift: doubly occupied orbital energies shifted by -2.50D-02

 DIIS Fock eigenvalues in symmetry 1
      -20.56515      -20.53599      -20.53598      -20.53095      -15.58906
       -1.33740       -1.33621       -1.30974       -1.30899       -1.16722
       -0.70765       -0.70330       -0.67505       -0.66920       -0.65749
       -0.63357       -0.59652       -0.59125       -0.56763       -0.56695
       -0.53127       -0.52811       -0.50132       -0.49426       -0.46450
        0.15637        0.19064        0.21595        0.22118        0.25632
        0.28289        0.30888        0.31281        0.34043        0.35709
        0.37582        0.47889        0.51173        0.56183        0.57304
        0.60605        0.61971        0.62153        0.63092        0.64275
        0.67351        0.68876        0.93816        0.94639        0.97443
        0.97821        0.98500        0.99827        1.01975        1.04686
        1.07169        1.09335        1.11923        1.12978        1.13600
        1.15460        1.17297        1.28723        1.33739        1.34916
        1.36254        1.39772        1.41738        1.50475        1.52598
        1.54152        1.54393        1.55761        1.56213        1.58197
        1.60148        1.63772        1.73041        1.74268        1.74451
        1.76371        1.83020        1.85153        1.87980        1.92726
        1.94088        1.94916        1.99871        2.01143        2.19694
        2.21921        2.23109        2.24705        2.26564        2.30211
        2.34993        2.38463        2.42464        2.48839        2.58198
        2.64087        2.65181        2.65774        2.66864        2.74105
        2.77494        2.82421        2.82794        2.88089        2.88912
        2.89998        2.97616        3.02624        3.19039        3.41409
        3.43810        3.44615        3.48171        3.48415        3.51077
        3.51591        3.52509        3.54899        3.55810        3.64353
        3.67167        3.68246        3.69831        4.00573        4.01296
        4.02237        4.03445        4.19745        4.22245        4.25662
        4.26400        4.54453        5.14358        5.25997        5.33469
        5.34469        5.35224        5.42457        5.70278        5.72607
        5.74902        5.78231        6.07702        6.08353        6.11968
        6.16582       37.00968       51.51183       51.53455       51.55312
       51.58646
 Time used in FCKEIG, thr_jaco:   2.80D-01  2.80D-02  1.43D-05
 CPU and wall times used in FCKEIG, THR_FCKEIG:   2.83D-01  2.80D-02  3.27D-03
 -----------------------------------------------------------------------------

 *** DIIS iteration number    4
 RDSUPM called. NFMAT, ISYMDM(1:NFMAT)                     1
                     1

 ITDIIS, energy, error norm, change in energy, scr.thr., difden:
@ DIIS iter.   4    -360.835467614        1.18752D-01   -7.91D-03  -20    F

 (DIIS_RED) Control Parameters C2DIIS =         F NEVC =    4


 (DIIS_RED) B matrix:

               Column   1     Column   2     Column   3     Column   4
       1      13.86901642
       2       0.99481052     0.81659415
       3       0.58261599     0.07761570     0.10680768
       4      -0.00762870     0.07706265    -0.00761196     0.01410197
    ==== End of matrix output ====

 DIIS C vector; C2DIIS = F, LAMBDA = -4.06D-03
    0.000701   -0.099715    0.172661    0.926352
* Read MO coefficients from SIRIUS.RST with label "NEWORB  " and header info: 31Dec18  DIIS   4
      Virial theorem: -V/T =      2.003546
@      MULPOP N      -0.66; H       0.22; H       0.22; H       0.22; O      -0.69; O      -0.67; O      -0.77; O      -0.70; H       0.37; H       0.34; 
@             H       0.34; H       0.34; H       0.37; H       0.34; H       0.34; H       0.38; 
   4  Level shift: doubly occupied orbital energies shifted by -1.25D-02

 DIIS Fock eigenvalues in symmetry 1
      -20.56342      -20.55964      -20.53765      -20.53016      -15.53830
       -1.33558       -1.32913       -1.30203       -1.30157       -1.14259
       -0.70342       -0.69425       -0.66157       -0.65956       -0.64026
       -0.61125       -0.59219       -0.58089       -0.55820       -0.55736
       -0.52718       -0.51630       -0.49084       -0.48217       -0.43875
        0.15705        0.19016        0.21507        0.22022        0.25598
        0.28273        0.30936        0.31382        0.34163        0.35841
        0.37680        0.48326        0.51492        0.56197        0.57270
        0.60430        0.61879        0.62087        0.62973        0.64021
        0.67224        0.69212        0.94075        0.95014        0.97204
        0.97924        0.98799        0.99755        1.02156        1.04872
        1.07231        1.09257        1.11885        1.12869        1.13476
        1.15011        1.17322        1.28816        1.34254        1.34783
        1.36073        1.40220        1.41794        1.50350        1.52394
        1.53908        1.54174        1.55587        1.55944        1.58013
        1.59929        1.63653        1.72923        1.74095        1.74203
        1.76232        1.83299        1.85322        1.88124        1.92962
        1.93937        1.94816        2.00107        2.01462        2.20479
        2.22537        2.23008        2.24406        2.26309        2.29636
        2.34704        2.38089        2.42164        2.49128        2.58422
        2.63920        2.65080        2.65567        2.66711        2.74309
        2.77711        2.82330        2.82693        2.87901        2.88812
        2.90904        2.98760        3.03766        3.20125        3.41824
        3.43347        3.44806        3.47731        3.48326        3.50917
        3.51246        3.52051        3.54583        3.56140        3.64068
        3.66094        3.67815        3.69522        4.00208        4.00840
        4.01887        4.02417        4.19338        4.21316        4.25225
        4.26038        4.56498        5.16222        5.27820        5.31643
        5.33892        5.34541        5.41916        5.68433        5.72089
        5.74191        5.77674        6.06927        6.07771        6.11347
        6.14748       37.04722       51.50129       51.52070       51.54099
       51.55172
 Time used in FCKEIG, thr_jaco:   2.58D-01  2.60D-02  5.19D-06
 CPU and wall times used in FCKEIG, THR_FCKEIG:   2.60D-01  2.60D-02  1.19D-03
 -----------------------------------------------------------------------------

 *** DIIS iteration number    5
 RDSUPM called. NFMAT, ISYMDM(1:NFMAT)                     1
                     1

 ITDIIS, energy, error norm, change in energy, scr.thr., difden:
@ DIIS iter.   5    -360.836623735        2.48496D-02   -1.16D-03  -20    F

 (DIIS_RED) Control Parameters C2DIIS =         F NEVC =    5


 (DIIS_RED) B matrix:

               Column   1     Column   2     Column   3     Column   4     Column   5
       1      13.86901642
       2       0.99481052     0.81659415
       3       0.58261599     0.07761570     0.10680768
       4      -0.00762870     0.07706265    -0.00761196     0.01410197
       5       0.01457690     0.00660883     0.00512278     0.00077923     0.00061750
    ==== End of matrix output ====

 DIIS C vector; C2DIIS = F, LAMBDA = -3.15D-04
    0.001302    0.009660   -0.078977   -0.139058    1.207073
* Read MO coefficients from SIRIUS.RST with label "NEWORB  " and header info: 31Dec18  DIIS   5
      Virial theorem: -V/T =      2.003174
@      MULPOP N      -0.65; H       0.22; H       0.22; H       0.22; O      -0.70; O      -0.68; O      -0.79; O      -0.71; H       0.38; H       0.34; 
@             H       0.35; H       0.35; H       0.38; H       0.35; H       0.35; H       0.39; 

 DIIS Fock eigenvalues in symmetry 1
      -20.54893      -20.54121      -20.52299      -20.51526      -15.52309
       -1.32090       -1.31593       -1.28877       -1.28817       -1.12951
       -0.68982       -0.68172       -0.64885       -0.64682       -0.62756
       -0.59836       -0.57799       -0.56810       -0.54558       -0.54451
       -0.51168       -0.50228       -0.47675       -0.46786       -0.42495
        0.15707        0.19003        0.21500        0.22022        0.25590
        0.28261        0.30933        0.31385        0.34175        0.35850
        0.37701        0.48337        0.51498        0.56245        0.57272
        0.60408        0.61892        0.62089        0.62969        0.63989
        0.67220        0.69236        0.94178        0.95106        0.97367
        0.98017        0.98857        0.99851        1.02232        1.04945
        1.07277        1.09284        1.11919        1.12901        1.13496
        1.15091        1.17373        1.28856        1.34278        1.34820
        1.36106        1.40249        1.41839        1.50406        1.52354
        1.53891        1.54191        1.55579        1.55903        1.58004
        1.59945        1.63676        1.72919        1.74084        1.74165
        1.76206        1.83293        1.85312        1.88104        1.92956
        1.93885        1.94777        2.00109        2.01467        2.20489
        2.22526        2.22996        2.24373        2.26288        2.29670
        2.34676        2.38064        2.42151        2.49152        2.58443
        2.63889        2.65054        2.65519        2.66671        2.74288
        2.77685        2.82262        2.82659        2.87829        2.88750
        2.90941        2.98795        3.03804        3.20164        3.41901
        3.43549        3.44889        3.47806        3.48416        3.51064
        3.51320        3.52113        3.54656        3.56259        3.64126
        3.66304        3.67876        3.69597        4.00268        4.00901
        4.01962        4.02615        4.19430        4.21506        4.25299
        4.26122        4.56628        5.16325        5.27930        5.32002
        5.34034        5.34680        5.42070        5.68758        5.72191
        5.74299        5.77797        6.07014        6.07849        6.11449
        6.15045       37.04987       51.50326       51.52282       51.54359
       51.55729
 Time used in FCKEIG, thr_jaco:   2.42D-01  2.40D-02  1.09D-06
 CPU and wall times used in FCKEIG, THR_FCKEIG:   2.42D-01  2.40D-02  2.48D-04
 -----------------------------------------------------------------------------

 *** DIIS iteration number    6
 RDSUPM called. NFMAT, ISYMDM(1:NFMAT)                     1
                     1

 ITDIIS, energy, error norm, change in energy, scr.thr., difden:
@ DIIS iter.   6    -360.836717876        7.58634D-03   -9.41D-05  -20    F

 (DIIS_RED) Control Parameters C2DIIS =         F NEVC =    6


 (DIIS_RED) B matrix:

               Column   1     Column   2     Column   3     Column   4     Column   5     Column   6
       1      13.86901642
       2       0.99481052     0.81659415
       3       0.58261599     0.07761570     0.10680768
       4      -0.00762870     0.07706265    -0.00761196     0.01410197
       5       0.01457690     0.00660883     0.00512278     0.00077923     0.00061750
       6      -0.00291720    -0.00038737     0.00052289     0.00017349     0.00007525     0.00005755
    ==== End of matrix output ====

 DIIS C vector; C2DIIS = F, LAMBDA = -3.42D-05
    0.000476    0.008390   -0.025600   -0.076817    0.148498    0.945052
* Read MO coefficients from SIRIUS.RST with label "NEWORB  " and header info: 31Dec18  DIIS   6
      Virial theorem: -V/T =      2.003325
@      MULPOP N      -0.65; H       0.22; H       0.22; H       0.22; O      -0.71; O      -0.69; O      -0.79; O      -0.71; H       0.38; H       0.34; 
@             H       0.35; H       0.35; H       0.38; H       0.35; H       0.35; H       0.39; 

 DIIS Fock eigenvalues in symmetry 1
      -20.54972      -20.54319      -20.52380      -20.51627      -15.52641
       -1.32137       -1.31613       -1.28898       -1.28845       -1.13059
       -0.69036       -0.68203       -0.64928       -0.64720       -0.62841
       -0.59932       -0.57857       -0.56850       -0.54600       -0.54496
       -0.51198       -0.50236       -0.47682       -0.46798       -0.42588
        0.15695        0.18991        0.21489        0.22012        0.25575
        0.28249        0.30917        0.31370        0.34159        0.35832
        0.37682        0.48301        0.51468        0.56218        0.57254
        0.60393        0.61873        0.62070        0.62952        0.63969
        0.67202        0.69201        0.94129        0.95061        0.97344
        0.98000        0.98812        0.99807        1.02202        1.04912
        1.07247        1.09260        1.11893        1.12874        1.13472
        1.15059        1.17345        1.28817        1.34224        1.34799
        1.36083        1.40197        1.41804        1.50375        1.52331
        1.53871        1.54171        1.55557        1.55880        1.57980
        1.59921        1.63646        1.72896        1.74064        1.74144
        1.76182        1.83255        1.85276        1.88071        1.92914
        1.93861        1.94752        2.00075        2.01428        2.20416
        2.22474        2.22946        2.24342        2.26258        2.29634
        2.34650        2.38038        2.42122        2.49102        2.58399
        2.63870        2.65023        2.65495        2.66644        2.74253
        2.77649        2.82234        2.82645        2.87804        2.88722
        2.90854        2.98696        3.03703        3.20067        3.41844
        3.43490        3.44788        3.47778        3.48366        3.50995
        3.51284        3.52083        3.54618        3.56154        3.64097
        3.66248        3.67848        3.69561        4.00236        4.00870
        4.01924        4.02554        4.19393        4.21447        4.25266
        4.26084        4.56447        5.16157        5.27766        5.31905
        5.33984        5.34633        5.42015        5.68656        5.72145
        5.74253        5.77741        6.06967        6.07803        6.11391
        6.14945       37.04662       51.50248       51.52201       51.54254
       51.55540
 Time used in FCKEIG, thr_jaco:   2.69D-01  2.70D-02  3.31D-07
 CPU and wall times used in FCKEIG, THR_FCKEIG:   2.69D-01  2.70D-02  7.59D-05
 -----------------------------------------------------------------------------

 *** DIIS iteration number    7
 RDSUPM called. NFMAT, ISYMDM(1:NFMAT)                     1
                     1

 ITDIIS, energy, error norm, change in energy, scr.thr., difden:
@ DIIS iter.   7    -360.836724074        2.56969D-03   -6.20D-06  -20    F

 (DIIS_RED) Control Parameters C2DIIS =         F NEVC =    7


 (DIIS_RED) B matrix:

               Column   1     Column   2     Column   3     Column   4     Column   5     Column   6
       1      13.86901642
       2       0.99481052     0.81659415
       3       0.58261599     0.07761570     0.10680768
       4      -0.00762870     0.07706265    -0.00761196     0.01410197
       5       0.01457690     0.00660883     0.00512278     0.00077923     0.00061750
       6      -0.00291720    -0.00038737     0.00052289     0.00017349     0.00007525     0.00005755
       7       0.00104778     0.00004051     0.00008550    -0.00000495     0.00003703    -0.00000094

               Column   7
       7       0.00000660
    ==== End of matrix output ====

 DIIS C vector; C2DIIS = F, LAMBDA = -1.22D-06
   -0.000225   -0.001868    0.011556    0.025612   -0.172754    0.058569    1.079110
* Read MO coefficients from SIRIUS.RST with label "NEWORB  " and header info: 31Dec18  DIIS   7
      Virial theorem: -V/T =      2.003285
@      MULPOP N      -0.65; H       0.22; H       0.22; H       0.22; O      -0.71; O      -0.69; O      -0.79; O      -0.71; H       0.38; H       0.34; 
@             H       0.35; H       0.35; H       0.38; H       0.35; H       0.35; H       0.39; 

 DIIS Fock eigenvalues in symmetry 1
      -20.54951      -20.54250      -20.52358      -20.51601      -15.52575
       -1.32105       -1.31602       -1.28886       -1.28832       -1.13037
       -0.69013       -0.68198       -0.64920       -0.64713       -0.62828
       -0.59918       -0.57835       -0.56848       -0.54600       -0.54495
       -0.51162       -0.50223       -0.47669       -0.46781       -0.42564
        0.15699        0.18993        0.21493        0.22017        0.25579
        0.28251        0.30921        0.31372        0.34162        0.35835
        0.37690        0.48309        0.51474        0.56233        0.57259
        0.60395        0.61881        0.62075        0.62958        0.63971
        0.67206        0.69210        0.94144        0.95076        0.97363
        0.98009        0.98821        0.99822        1.02212        1.04921
        1.07255        1.09266        1.11900        1.12882        1.13478
        1.15076        1.17354        1.28829        1.34234        1.34807
        1.36092        1.40206        1.41815        1.50391        1.52332
        1.53874        1.54184        1.55560        1.55881        1.57985
        1.59929        1.63656        1.72904        1.74071        1.74146
        1.76184        1.83260        1.85283        1.88075        1.92920
        1.93862        1.94754        2.00084        2.01435        2.20426
        2.22481        2.22953        2.24346        2.26261        2.29650
        2.34652        2.38040        2.42125        2.49113        2.58408
        2.63877        2.65027        2.65498        2.66646        2.74255
        2.77650        2.82234        2.82654        2.87803        2.88722
        2.90870        2.98713        3.03721        3.20082        3.41859
        3.43519        3.44810        3.47788        3.48380        3.51019
        3.51297        3.52094        3.54630        3.56180        3.64107
        3.66280        3.67859        3.69573        4.00247        4.00880
        4.01934        4.02584        4.19408        4.21477        4.25279
        4.26097        4.56484        5.16188        5.27798        5.31948
        5.34001        5.34649        5.42032        5.68699        5.72159
        5.74267        5.77757        6.06981        6.07816        6.11407
        6.14987       37.04727       51.50268       51.52224       51.54283
       51.55606
 Time used in FCKEIG, thr_jaco:   2.57D-01  2.60D-02  1.12D-07
 CPU and wall times used in FCKEIG, THR_FCKEIG:   2.57D-01  2.60D-02  2.57D-05
 -----------------------------------------------------------------------------

 *** DIIS iteration number    8
 RDSUPM called. NFMAT, ISYMDM(1:NFMAT)                     1
                     1

 ITDIIS, energy, error norm, change in energy, scr.thr., difden:
@ DIIS iter.   8    -360.836724705        3.60501D-04   -6.31D-07  -20    F

 (DIIS_RED) Control Parameters C2DIIS =         F NEVC =    8


 (DIIS_RED) B matrix:

               Column   1     Column   2     Column   3     Column   4     Column   5     Column   6
       1      13.86901642
       2       0.99481052     0.81659415
       3       0.58261599     0.07761570     0.10680768
       4      -0.00762870     0.07706265    -0.00761196     0.01410197
       5       0.01457690     0.00660883     0.00512278     0.00077923     0.00061750
       6      -0.00291720    -0.00038737     0.00052289     0.00017349     0.00007525     0.00005755
       7       0.00104778     0.00004051     0.00008550    -0.00000495     0.00003703    -0.00000094
       8      -0.00002645     0.00000356    -0.00000580     0.00000586     0.00000067     0.00000143

               Column   7     Column   8
       7       0.00000660
       8       0.00000022     0.00000013
    ==== End of matrix output ====

 DIIS C vector; C2DIIS = F, LAMBDA = -5.62D-08
    0.000032    0.000247   -0.001898   -0.004347    0.035658   -0.046447   -0.223675    1.240429
* Read MO coefficients from SIRIUS.RST with label "NEWORB  " and header info: 31Dec18  DIIS   8
      Virial theorem: -V/T =      2.003306
@      MULPOP N      -0.65; H       0.22; H       0.22; H       0.22; O      -0.71; O      -0.69; O      -0.79; O      -0.71; H       0.38; H       0.34; 
@             H       0.35; H       0.35; H       0.38; H       0.35; H       0.35; H       0.39; 

 DIIS Fock eigenvalues in symmetry 1
      -20.54954      -20.54250      -20.52361      -20.51605      -15.52579
       -1.32104       -1.31603       -1.28887       -1.28834       -1.13038
       -0.69012       -0.68198       -0.64920       -0.64714       -0.62829
       -0.59920       -0.57835       -0.56851       -0.54603       -0.54499
       -0.51162       -0.50224       -0.47670       -0.46783       -0.42565
        0.15698        0.18993        0.21492        0.22017        0.25579
        0.28251        0.30920        0.31372        0.34162        0.35834
        0.37689        0.48308        0.51474        0.56232        0.57258
        0.60394        0.61880        0.62074        0.62958        0.63970
        0.67205        0.69209        0.94143        0.95074        0.97363
        0.98007        0.98819        0.99821        1.02210        1.04920
        1.07254        1.09265        1.11899        1.12881        1.13477
        1.15076        1.17352        1.28828        1.34232        1.34805
        1.36091        1.40205        1.41813        1.50391        1.52331
        1.53873        1.54183        1.55558        1.55880        1.57984
        1.59928        1.63655        1.72904        1.74070        1.74145
        1.76183        1.83260        1.85282        1.88074        1.92919
        1.93861        1.94753        2.00083        2.01434        2.20424
        2.22480        2.22951        2.24345        2.26259        2.29651
        2.34651        2.38039        2.42124        2.49111        2.58407
        2.63876        2.65027        2.65498        2.66645        2.74254
        2.77648        2.82233        2.82654        2.87803        2.88721
        2.90868        2.98711        3.03719        3.20080        3.41857
        3.43519        3.44808        3.47786        3.48377        3.51018
[...]
    ==== End of matrix output ====


 CCSD   oscillator strength matrix for state nr. 13 of symmetry 1
 CCSD  excitation energy:15.14882106


               Column   1     Column   2     Column   3
       1     4.304892D-04   4.725104D-04  -2.979835D-04
       2     4.725104D-04   5.185758D-04  -3.270179D-04
       3    -2.979835D-04  -3.270179D-04   2.062153D-04
    ==== End of matrix output ====

 Principal values of diagonalized oscillator strength matrix:

             a.u.               
 1      -0.00000004
 2       0.00000000
 3       0.00115532

 Principal axis of diagonalized oscillator strength matrix:


               Column   1     Column   2     Column   3
       1       0.75957269    -0.22453181     0.61043819
       2      -0.34395229     0.65790137     0.66997210
       3       0.55203817     0.71885413    -0.42249568
    ==== End of matrix output ====


 CCSD  Transition strength matrix for state nr. 14 of symmetry 1
 CCSD  excitation energy:15.21499576

 Gauge: length

               Column   1     Column   2     Column   3
       1     2.019422D-05  -3.667479D-06  -4.240534D-05
       2    -3.667479D-06   6.658863D-07   7.700728D-06
       3    -4.240534D-05   7.700728D-06   8.904429D-05
    ==== End of matrix output ====

 Principal values of diagonalized transition strength matrix:

             a.u.               
 1      -0.00000000
 2      -0.00000000
 3       0.00010990

 Principal axis of diagonalized transition strength matrix:


               Column   1     Column   2     Column   3
       1       0.79901680    -0.42169537    -0.42865507
       2       0.49767946     0.86386081     0.07784381
       3       0.33747194    -0.27553134     0.90010842
    ==== End of matrix output ====


 CCSD   oscillator strength matrix for state nr. 14 of symmetry 1
 CCSD  excitation energy:15.21499576


               Column   1     Column   2     Column   3
       1     2.048367D-04  -3.720045D-05  -4.301314D-04
       2    -3.720045D-05   6.754305D-06   7.811103D-05
       3    -4.301314D-04   7.811103D-05   9.032057D-04
    ==== End of matrix output ====

 Principal values of diagonalized oscillator strength matrix:

             a.u.               
 1      -0.00000000
 2      -0.00000000
 3       0.00111480

 Principal axis of diagonalized oscillator strength matrix:


               Column   1     Column   2     Column   3
       1       0.79901680    -0.42169537    -0.42865507
       2       0.49767946     0.86386081     0.07784381
       3       0.33747194    -0.27553134     0.90010842
    ==== End of matrix output ====


 CCSD  Transition strength matrix for state nr. 15 of symmetry 1
 CCSD  excitation energy:15.26220816

 Gauge: length

               Column   1     Column   2     Column   3
       1     1.432670D-06   2.090686D-05  -1.337997D-05
       2     2.090686D-05   3.049027D-04  -1.951079D-04
       3    -1.337997D-05  -1.951079D-04   1.248470D-04
    ==== End of matrix output ====

 Principal values of diagonalized transition strength matrix:

             a.u.               
 1      -0.00000000
 2       0.00000000
 3       0.00043119

 Principal axis of diagonalized transition strength matrix:


               Column   1     Column   2     Column   3
       1       0.56548908     0.82273761     0.05766216
       2       0.41667738    -0.34532897     0.84090895
       3       0.71175983    -0.45149831    -0.53809592
    ==== End of matrix output ====


 CCSD   oscillator strength matrix for state nr. 15 of symmetry 1
 CCSD  excitation energy:15.26220816


               Column   1     Column   2     Column   3
       1       0.00001458     0.00021272    -0.00013614
       2       0.00021272     0.00310233    -0.00198518
       3      -0.00013614    -0.00198518     0.00127029
    ==== End of matrix output ====

 Principal values of diagonalized oscillator strength matrix:

             a.u.               
 1      -0.00000003
 2       0.00000000
 3       0.00438723

 Principal axis of diagonalized oscillator strength matrix:


               Column   1     Column   2     Column   3
       1       0.56548908     0.82273761     0.05766216
       2       0.41667738    -0.34532897     0.84090895
       3       0.71175983    -0.45149831    -0.53809592
    ==== End of matrix output ====

  Total time for    135 linear response residues:     154.88 seconds.
  

 *******************************************************************************
 *******************************************************************************
 *                                                                             *
 *                                                                             *
 *                   SUMMARY OF COUPLED CLUSTER CALCULATION                    *
 *                                                                             *
 *                                                                             *
 *******************************************************************************
 *******************************************************************************

                                                                                
                                                                                
            Total SCF   energy:                  -360.8367247246                
            Total MP2   energy:                  -361.9368005786                
            Total CCSD  energy:                  -361.9764906201                
                                                                                
                                                                                
            Total SCF   energy:                  -360.8367247246                
            Total RSTAR energy:                  -361.9764906201                
            Total CCSD  energy:                  -361.9766487477                
                                                                                
                                                                                
            Total SCF   energy:                  -360.8367247246                
            Total RSTAR energy:                  -361.9766487477                
            Total CCSD  energy:                  -361.9766514737                
                                                                                
                                                                                
            Total SCF   energy:                  -360.8367247246                
            Total RSTAR energy:                  -361.9766514737                
            Total CCSD  energy:                  -361.9766516564                
                                                                                
                                                                                
            Total SCF   energy:                  -360.8367247246                
            Total RSTAR energy:                  -361.9766516564                
            Total CCSD  energy:                  -361.9766516678                
                                                                                
                                                                                
            Total SCF   energy:                  -360.8367247246                
            Total RSTAR energy:                  -361.9766516678                
            Total CCSD  energy:                  -361.9766516685                
                                                                                
                                                                                
            Total SCF   energy:                  -360.8367247246                
            Total RSTAR energy:                  -361.9766516685                
            Total CCSD  energy:                  -361.9766516685                
            CCSD Total  energy:                  -362.4569661430                
            CCSD E(QM/MM)     :                    -0.4738109130                
                                                                                
                                                                                
                                                                                
 +=============================================================================+
 |  sym. | Exci.  |        CCSD       Excitation energies            | ||T1||  |
 |(spin, |        +------------------------------------------------------------+
 | spat) |        |     Hartree    |       eV.      |     cm-1       |    %    |
 +=============================================================================+
 | ^1A   |    1   |    14.8227667  |     403.34800  |   3253221.221  |  88.35  |
 | ^1A   |    2   |    14.8904709  |     405.19032  |   3268080.574  |  88.80  |
 | ^1A   |    3   |    14.9032278  |     405.53746  |   3270880.398  |  88.84  |
 | ^1A   |    4   |    14.9540004  |     406.91905  |   3282023.698  |  88.40  |
 | ^1A   |    5   |    14.9969397  |     408.08749  |   3291447.783  |  88.05  |
 | ^1A   |    6   |    15.0227664  |     408.79027  |   3297116.095  |  88.04  |
 | ^1A   |    7   |    15.0267504  |     408.89868  |   3297990.476  |  88.01  |
 | ^1A   |    8   |    15.0759054  |     410.23625  |   3308778.754  |  87.99  |
 | ^1A   |    9   |    15.0772392  |     410.27255  |   3309071.492  |  87.96  |
 | ^1A   |   10   |    15.0799570  |     410.34650  |   3309667.964  |  88.08  |
 | ^1A   |   11   |    15.1002196  |     410.89788  |   3314115.104  |  87.94  |
 | ^1A   |   12   |    15.1239987  |     411.54494  |   3319334.004  |  87.99  |
 | ^1A   |   13   |    15.1488211  |     412.22039  |   3324781.886  |  87.92  |
 | ^1A   |   14   |    15.2149958  |     414.02110  |   3339305.555  |  87.77  |
 | ^1A   |   15   |    15.2622082  |     415.30581  |   3349667.478  |  88.06  |
 +=============================================================================+
                                                                                
                                                                                
     Total energies in Hartree:                                                 
             1 ^1A       -347.1603885597                                        
             2 ^1A       -347.0926843625                                        
             3 ^1A       -347.0799274257                                        
             4 ^1A       -347.0291548161                                        
             5 ^1A       -346.9862155249                                        
             6 ^1A       -346.9603887958                                        
             7 ^1A       -346.9564048214                                        
             8 ^1A       -346.9072498105                                        
             9 ^1A       -346.9059159986                                        
            10 ^1A       -346.9031982707                                        
            11 ^1A       -346.8829356117                                        
            12 ^1A       -346.8591565504                                        
            13 ^1A       -346.8343341749                                        
            14 ^1A       -346.7681594714                                        
            15 ^1A       -346.7209470722                                        
                                                                                
                                                                                
 +=============================================================================+
 |  sym. | Exci.  |        CCSD       Length   Gauge Oscillator Strength       |
 |(spin, |        +------------------------------------------------------------+
 | spat) |        | Dipole Strength(a.u.) | Oscillator strength  | Direction   |
 +=============================================================================+
 | ^1A   |    1   |        0.0005101      |      0.0050410       |  (Y,Z)      |
 | ^1A   |    2   |        0.0035203      |      0.0349464       |  (Y,Z)      |
 | ^1A   |    3   |        0.0038066      |      0.0378209       |  (Y,Z)      |
 | ^1A   |    4   |        0.0018014      |      0.0179585       |  (Y,Z)      |
 | ^1A   |    5   |        0.0004435      |      0.0044343       |  (Y,Z)      |
 | ^1A   |    6   |        0.0005004      |      0.0050118       |  (Y,Z)      |
 | ^1A   |    7   |        0.0004183      |      0.0041906       |  (Y,Z)      |
 | ^1A   |    8   |        0.0001309      |      0.0013152       |  (Y,Z)      |
 | ^1A   |    9   |        0.0001424      |      0.0014317       |  (Y,Z)      |
 | ^1A   |   10   |        0.0005689      |      0.0057194       |  (Y,Z)      |
 | ^1A   |   11   |        0.0001779      |      0.0017913       |  (Y,Z)      |
 | ^1A   |   12   |        0.0001100      |      0.0011096       |  (Y,Z)      |
 | ^1A   |   13   |        0.0001144      |      0.0011553       |  (Y,Z)      |
 | ^1A   |   14   |        0.0001099      |      0.0011148       |  (Y,Z)      |
 | ^1A   |   15   |        0.0004312      |      0.0043872       |  (Y,Z)      |
 +=============================================================================+

  1 a.u. =        27.21138 eV.  
  1 a.u. =    219474.62934 cm-1.
  

 *******************************************************************************
 *******************************************************************************
 *                                                                             *
 *                                                                             *
 *                      END OF COUPLED CLUSTER CALCULATION                     *
 *                                                                             *
 *                                                                             *
 *******************************************************************************
 *******************************************************************************


 CPU and wall time for CC :  438738.732   52306.295

 
     Date and time (Linux)  : Mon Dec 31 15:17:07 2018
     Host name              : n-62-29-15                              


                      .-------------------------------------.
                      | End of Coupled Cluster Section (CC) |
                      `-------------------------------------'

  Total CPU  time used in DALTON: 122 hours  2 minutes 40 seconds
  Total wall time used in DALTON:  14 hours 33 minutes 45 seconds

 
     Date and time (Linux)  : Mon Dec 31 15:17:07 2018
     Host name              : n-62-29-15                              
  

 +---------------------------------------------------------+ 
 | List of selected calculated molecular properties (a.u.) | 
 +---------------------------------------------------------+ 

  Properties are read from unit number                      4

 CCSD       properties :
 #  1 1 CCSD/MM  Ground state Energy =    -362.4569661430
 #  2 1 E_QM/MM  Ground state Energy =      -0.4738109130
 #  3 1 Sy: 1 Sp: 1 Exc:  1 E_tot:   -347.1603885597 w:     14.8227666703 E_grs:   -361.9831552300
 #  4 1 Exctot   Excited state Energy =    -347.1603885597
 #  5 1 Sy: 1 Sp: 1 Exc:  2 E_tot:   -347.0926843625 w:     14.8904708674 E_grs:   -361.9831552300
 #  6 1 Exctot   Excited state Energy =    -347.0926843625
 #  7 1 Sy: 1 Sp: 1 Exc:  3 E_tot:   -347.0799274257 w:     14.9032278042 E_grs:   -361.9831552300
 #  8 1 Exctot   Excited state Energy =    -347.0799274257
 #  9 1 Sy: 1 Sp: 1 Exc:  4 E_tot:   -347.0291548161 w:     14.9540004138 E_grs:   -361.9831552300
 # 10 1 Exctot   Excited state Energy =    -347.0291548161
 # 11 1 Sy: 1 Sp: 1 Exc:  5 E_tot:   -346.9862155249 w:     14.9969397051 E_grs:   -361.9831552300
 # 12 1 Exctot   Excited state Energy =    -346.9862155249
 # 13 1 Sy: 1 Sp: 1 Exc:  6 E_tot:   -346.9603887958 w:     15.0227664341 E_grs:   -361.9831552300
 # 14 1 Exctot   Excited state Energy =    -346.9603887958
 # 15 1 Sy: 1 Sp: 1 Exc:  7 E_tot:   -346.9564048214 w:     15.0267504085 E_grs:   -361.9831552300
 # 16 1 Exctot   Excited state Energy =    -346.9564048214
 # 17 1 Sy: 1 Sp: 1 Exc:  8 E_tot:   -346.9072498105 w:     15.0759054195 E_grs:   -361.9831552300
 # 18 1 Exctot   Excited state Energy =    -346.9072498105
 # 19 1 Sy: 1 Sp: 1 Exc:  9 E_tot:   -346.9059159986 w:     15.0772392313 E_grs:   -361.9831552300
 # 20 1 Exctot   Excited state Energy =    -346.9059159986
 # 21 1 Sy: 1 Sp: 1 Exc: 10 E_tot:   -346.9031982707 w:     15.0799569593 E_grs:   -361.9831552300
 # 22 1 Exctot   Excited state Energy =    -346.9031982707
 # 23 1 Sy: 1 Sp: 1 Exc: 11 E_tot:   -346.8829356117 w:     15.1002196183 E_grs:   -361.9831552300
 # 24 1 Exctot   Excited state Energy =    -346.8829356117
 # 25 1 Sy: 1 Sp: 1 Exc: 12 E_tot:   -346.8591565504 w:     15.1239986795 E_grs:   -361.9831552300
 # 26 1 Exctot   Excited state Energy =    -346.8591565504
 # 27 1 Sy: 1 Sp: 1 Exc: 13 E_tot:   -346.8343341749 w:     15.1488210551 E_grs:   -361.9831552300
 # 28 1 Exctot   Excited state Energy =    -346.8343341749
 # 29 1 Sy: 1 Sp: 1 Exc: 14 E_tot:   -346.7681594714 w:     15.2149957585 E_grs:   -361.9831552300
 # 30 1 Exctot   Excited state Energy =    -346.7681594714
 # 31 1 Sy: 1 Sp: 1 Exc: 15 E_tot:   -346.7209470722 w:     15.2622081578 E_grs:   -361.9831552300
 # 32 1 Exctot   Excited state Energy =    -346.7209470722
 # 33 1 |<O|XDIPLEN |i(14.822767)>| =     0.00967765
 # 35 1 |<O|XDIPLEN |i(14.890471)>| =     0.04071726
 # 37 1 |<O|XDIPLEN |i(14.903228)>| =     0.04399847
 # 39 1 |<O|XDIPLEN |i(14.954000)>| =     0.01147267
 # 41 1 |<O|XDIPLEN |i(14.996940)>| =     0.01365262
 # 43 1 |<O|XDIPLEN |i(15.022766)>| =     0.00741595
 # 45 1 |<O|XDIPLEN |i(15.026750)>| =     0.01628276
 # 47 1 |<O|XDIPLEN |i(15.075905)>| =     0.00483725
 # 49 1 |<O|XDIPLEN |i(15.077239)>| =     0.00400427
 # 51 1 |<O|XDIPLEN |i(15.079957)>| =     0.00033669
 # 53 1 |<O|XDIPLEN |i(15.100220)>| =     0.00186285
 # 55 1 |<O|XDIPLEN |i(15.123999)>| =     0.00966479
 # 57 1 |<O|XDIPLEN |i(15.148821)>| =     0.00652886
 # 59 1 |<O|XDIPLEN |i(15.214996)>| =     0.00449380
 # 61 1 |<O|XDIPLEN |i(15.262208)>| =     0.00119694
 # 63 1 |<O|YDIPLEN |i(14.822767)>| =     0.01920057
 # 65 1 |<O|YDIPLEN |i(14.890471)>| =     0.00692082
 # 67 1 |<O|YDIPLEN |i(14.903228)>| =     0.01834035
 # 69 1 |<O|YDIPLEN |i(14.954000)>| =     0.03837367
 # 71 1 |<O|YDIPLEN |i(14.996940)>| =     0.01303502
 # 73 1 |<O|YDIPLEN |i(15.022766)>| =     0.00278703
 # 75 1 |<O|YDIPLEN |i(15.026750)>| =     0.00597960
 # 77 1 |<O|YDIPLEN |i(15.075905)>| =     0.00943247
 # 79 1 |<O|YDIPLEN |i(15.077239)>| =     0.01124177
 # 81 1 |<O|YDIPLEN |i(15.079957)>| =     0.02323582
 # 83 1 |<O|YDIPLEN |i(15.100220)>| =     0.01047323
 # 85 1 |<O|YDIPLEN |i(15.123999)>| =     0.00381838
 # 87 1 |<O|YDIPLEN |i(15.148821)>| =     0.00716576
 # 89 1 |<O|YDIPLEN |i(15.214996)>| =     0.00081602
 # 91 1 |<O|YDIPLEN |i(15.262208)>| =     0.01746146
 # 93 1 |<O|ZDIPLEN |i(14.822767)>| =     0.00691425
 # 95 1 |<O|ZDIPLEN |i(14.890471)>| =     0.04259761
 # 97 1 |<O|ZDIPLEN |i(14.903228)>| =     0.03917159
 # 99 1 |<O|ZDIPLEN |i(14.954000)>| =     0.01404340
 #101 1 |<O|ZDIPLEN |i(14.996940)>| =     0.00933903
 #103 1 |<O|ZDIPLEN |i(15.022766)>| =     0.02092025
 #105 1 |<O|ZDIPLEN |i(15.026750)>| =     0.01083630
 #107 1 |<O|ZDIPLEN |i(15.075905)>| =     0.00429927
 #109 1 |<O|ZDIPLEN |i(15.077239)>| =     0.00014525
 #111 1 |<O|ZDIPLEN |i(15.079957)>| =     0.00537547
 #113 1 |<O|ZDIPLEN |i(15.100220)>| =     0.00804901
 #115 1 |<O|ZDIPLEN |i(15.123999)>| =     0.00143570
 #117 1 |<O|ZDIPLEN |i(15.148821)>| =     0.00451873
 #119 1 |<O|ZDIPLEN |i(15.214996)>| =     0.00943633
 #121 1 |<O|ZDIPLEN |i(15.262208)>| =     0.01117350

 THE_END   
