

     ************************************************************************
     *************** Dalton - An Electronic Structure Program ***************
     ************************************************************************

    This is output from DALTON release Dalton2017.alpha (2016)
         ( Web site: http://daltonprogram.org )

   ----------------------------------------------------------------------------

    NOTE:
     
    Dalton is an experimental code for the evaluation of molecular
    properties using (MC)SCF, DFT, CI, and CC wave functions.
    The authors accept no responsibility for the performance of
    the code or for the correctness of the results.
     
    The code (in whole or part) is provided under a licence and
    is not to be reproduced for further distribution without
    the written permission of the authors or their representatives.
     
    See the home page "http://daltonprogram.org" for further information.
     
    If results obtained with this code are published,
    the appropriate citations would be both of:
     
       K. Aidas, C. Angeli, K. L. Bak, V. Bakken, R. Bast,
       L. Boman, O. Christiansen, R. Cimiraglia, S. Coriani,
       P. Dahle, E. K. Dalskov, U. Ekstroem,
       T. Enevoldsen, J. J. Eriksen, P. Ettenhuber, B. Fernandez,
       L. Ferrighi, H. Fliegl, L. Frediani, K. Hald, A. Halkier,
       C. Haettig, H. Heiberg, T. Helgaker, A. C. Hennum,
       H. Hettema, E. Hjertenaes, S. Hoest, I.-M. Hoeyvik,
       M. F. Iozzi, B. Jansik, H. J. Aa. Jensen, D. Jonsson,
       P. Joergensen, J. Kauczor, S. Kirpekar,
       T. Kjaergaard, W. Klopper, S. Knecht, R. Kobayashi, H. Koch,
       J. Kongsted, A. Krapp, K. Kristensen, A. Ligabue,
       O. B. Lutnaes, J. I. Melo, K. V. Mikkelsen, R. H. Myhre,
       C. Neiss, C. B. Nielsen, P. Norman, J. Olsen,
       J. M. H. Olsen, A. Osted, M. J. Packer, F. Pawlowski,
       T. B. Pedersen, P. F. Provasi, S. Reine, Z. Rinkevicius,
       T. A. Ruden, K. Ruud, V. Rybkin, P. Salek, C. C. M. Samson,
       A. Sanchez de Meras, T. Saue, S. P. A. Sauer,
       B. Schimmelpfennig, K. Sneskov, A. H. Steindal,
       K. O. Sylvester-Hvid, P. R. Taylor, A. M. Teale,
       E. I. Tellgren, D. P. Tew, A. J. Thorvaldsen, L. Thoegersen,
       O. Vahtras, M. A. Watson, D. J. D. Wilson, M. Ziolkowski
       and H. Agren,
       "The Dalton quantum chemistry program system",
       WIREs Comput. Mol. Sci. 2014, 4:269–284 (doi: 10.1002/wcms.1172)
     
    and
     
       Dalton, a Molecular Electronic Structure Program,
       Release Dalton2017.alpha (2016), see http://daltonprogram.org
   ----------------------------------------------------------------------------

    Authors in alphabetical order (major contribution(s) in parenthesis):

  Kestutis Aidas,           Vilnius University,           Lithuania   (QM/MM)
  Celestino Angeli,         University of Ferrara,        Italy       (NEVPT2)
  Keld L. Bak,              UNI-C,                        Denmark     (AOSOPPA, non-adiabatic coupling, magnetic properties)
  Vebjoern Bakken,          University of Oslo,           Norway      (DALTON; geometry optimizer, symmetry detection)
  Radovan Bast,             UiT The Arctic U. of Norway,  Norway      (DALTON installation and execution frameworks)
  Pablo Baudin,             University of Valencia,       Spain       (Cholesky excitation energies)
  Linus Boman,              NTNU,                         Norway      (Cholesky decomposition and subsystems)
  Ove Christiansen,         Aarhus University,            Denmark     (CC module)
  Renzo Cimiraglia,         University of Ferrara,        Italy       (NEVPT2)
  Sonia Coriani,            University of Trieste,        Italy       (CC module, MCD in RESPONS)
  Janusz Cukras,            University of Trieste,        Italy       (MChD in RESPONS)
  Paal Dahle,               University of Oslo,           Norway      (Parallelization)
  Erik K. Dalskov,          UNI-C,                        Denmark     (SOPPA)
  Thomas Enevoldsen,        Univ. of Southern Denmark,    Denmark     (SOPPA)
  Janus J. Eriksen,         Aarhus University,            Denmark     (Polarizable embedding model, TDA)
  Rasmus Faber,             University of Copenhagen,     Denmark     (Vib.avg. NMR with SOPPA, parallel AO-SOPPA)
  Berta Fernandez,          U. of Santiago de Compostela, Spain       (doublet spin, ESR in RESPONS)
  Lara Ferrighi,            Aarhus University,            Denmark     (PCM Cubic response)
  Heike Fliegl,             University of Oslo,           Norway      (CCSD(R12))
  Luca Frediani,            UiT The Arctic U. of Norway,  Norway      (PCM)
  Bin Gao,                  UiT The Arctic U. of Norway,  Norway      (Gen1Int library)
  Christof Haettig,         Ruhr-University Bochum,       Germany     (CC module)
  Kasper Hald,              Aarhus University,            Denmark     (CC module)
  Asger Halkier,            Aarhus University,            Denmark     (CC module)
  Frederik Beyer Hansen,    University of Copenhagen,     Denmark     (Parallel AO-SOPPA)
  Erik D. Hedegaard,        Univ. of Southern Denmark,    Denmark     (Polarizable embedding model, QM/MM)
  Hanne Heiberg,            University of Oslo,           Norway      (geometry analysis, selected one-electron integrals)
  Trygve Helgaker,          University of Oslo,           Norway      (DALTON; ABACUS, ERI, DFT modules, London, and much more)
  Alf Christian Hennum,     University of Oslo,           Norway      (Parity violation)
  Hinne Hettema,            University of Auckland,       New Zealand (quadratic response in RESPONS; SIRIUS supersymmetry)
  Eirik Hjertenaes,         NTNU,                         Norway      (Cholesky decomposition)
  Pi A. B. Haase,           University of Copenhagen,     Denmark     (Triplet AO-SOPPA)
  Maria Francesca Iozzi,    University of Oslo,           Norway      (RPA)
  Brano Jansik              Technical Univ. of Ostrava    Czech Rep.  (DFT cubic response)
  Hans Joergen Aa. Jensen,  Univ. of Southern Denmark,    Denmark     (DALTON; SIRIUS, RESPONS, ABACUS modules, London, and much more)
  Dan Jonsson,              UiT The Arctic U. of Norway,  Norway      (cubic response in RESPONS module)
  Poul Joergensen,          Aarhus University,            Denmark     (RESPONS, ABACUS, and CC modules)
  Maciej Kaminski,          University of Warsaw,         Poland      (CPPh in RESPONS)
  Joanna Kauczor,           Linkoeping University,        Sweden      (Complex polarization propagator (CPP) module)
  Sheela Kirpekar,          Univ. of Southern Denmark,    Denmark     (Mass-velocity & Darwin integrals)
  Wim Klopper,              KIT Karlsruhe,                Germany     (R12 code in CC, SIRIUS, and ABACUS modules)
  Stefan Knecht,            ETH Zurich,                   Switzerland (Parallel CI and MCSCF)
  Rika Kobayashi,           Australian National Univ.,    Australia   (DIIS in CC, London in MCSCF)
  Henrik Koch,              NTNU,                         Norway      (CC module, Cholesky decomposition)
  Jacob Kongsted,           Univ. of Southern Denmark,    Denmark     (Polarizable embedding model, QM/MM)
  Andrea Ligabue,           University of Modena,         Italy       (CTOCD, AOSOPPA)
  Nanna H. List             Univ. of Southern Denmark,    Denmark     (Polarizable embedding model)
  Ola B. Lutnaes,           University of Oslo,           Norway      (DFT Hessian)
  Juan I. Melo,             University of Buenos Aires,   Argentina   (LRESC, Relativistic Effects on NMR Shieldings)
  Kurt V. Mikkelsen,        University of Copenhagen,     Denmark     (MC-SCRF and QM/MM)
  Rolf H. Myhre,            NTNU,                         Norway      (Cholesky, subsystems and ECC2)
  Christian Neiss,          Univ. Erlangen-Nuernberg,     Germany     (CCSD(R12))
  Christian B. Nielsen,     University of Copenhagen,     Denmark     (QM/MM)
  Patrick Norman,           Linkoeping University,        Sweden      (Cubic response and complex frequency response in RESPONS)
  Jeppe Olsen,              Aarhus University,            Denmark     (SIRIUS CI/density modules)
  Jogvan Magnus H. Olsen,   Univ. of Southern Denmark,    Denmark     (Polarizable embedding model, QM/MM)
  Anders Osted,             Copenhagen University,        Denmark     (QM/MM)
  Martin J. Packer,         University of Sheffield,      UK          (SOPPA)
  Filip Pawlowski,          Kazimierz Wielki University,  Poland      (CC3)
  Morten N. Pedersen,       Univ. of Southern Denmark,    Denmark     (Polarizable embedding model)
  Thomas B. Pedersen,       University of Oslo,           Norway      (Cholesky decomposition)
  Patricio F. Provasi,      University of Northeastern,   Argentina   (Analysis of coupling constants in localized orbitals)
  Zilvinas Rinkevicius,     KTH Stockholm,                Sweden      (open-shell DFT, ESR)
  Elias Rudberg,            KTH Stockholm,                Sweden      (DFT grid and basis info)
  Torgeir A. Ruden,         University of Oslo,           Norway      (Numerical derivatives in ABACUS)
  Kenneth Ruud,             UiT The Arctic U. of Norway,  Norway      (DALTON; ABACUS magnetic properties and much more)
  Pawel Salek,              KTH Stockholm,                Sweden      (DALTON; DFT code)
  Claire C. M. Samson       University of Karlsruhe       Germany     (Boys localization, r12 integrals in ERI)
  Alfredo Sanchez de Meras, University of Valencia,       Spain       (CC module, Cholesky decomposition)
  Trond Saue,               Paul Sabatier University,     France      (direct Fock matrix construction)
  Stephan P. A. Sauer,      University of Copenhagen,     Denmark     (SOPPA(CCSD), SOPPA prop., AOSOPPA, vibrational g-factors)
  Bernd Schimmelpfennig,    Forschungszentrum Karlsruhe,  Germany     (AMFI module)
  Kristian Sneskov,         Aarhus University,            Denmark     (Polarizable embedding model, QM/MM)
  Arnfinn H. Steindal,      UiT The Arctic U. of Norway,  Norway      (parallel QM/MM, Polarizable embedding model)
  Casper Steinmann,         Univ. of Southern Denmark,    Denmark     (QFIT, Polarizable embedding model)
  K. O. Sylvester-Hvid,     University of Copenhagen,     Denmark     (MC-SCRF)
  Peter R. Taylor,          VLSCI/Univ. of Melbourne,     Australia   (Symmetry handling ABACUS, integral transformation)
  Andrew M. Teale,          University of Nottingham,     England     (DFT-AC, DFT-D)
  David P. Tew,             University of Bristol,        England     (CCSD(R12))
  Olav Vahtras,             KTH Stockholm,                Sweden      (triplet response, spin-orbit, ESR, TDDFT, open-shell DFT)
  David J. Wilson,          La Trobe University,          Australia   (DFT Hessian and DFT magnetizabilities)
  Hans Agren,               KTH Stockholm,                Sweden      (SIRIUS module, RESPONS, MC-SCRF solvation model)
 --------------------------------------------------------------------------------

     Date and time (Linux)  : Mon Dec 24 23:37:45 2018
     Host name              : n-62-23-8                               

 * Work memory size             :  1280000000 =  9.537 gigabytes.

 * Directories for basis set searches:
   1) /zhome/37/3/129401/NH3NH4/CCSD/AIMD_SAMPLING/nh3_4h2o_nd
   2) /zhome/9a/4/124800/source/dalton/build-mlcc/basis


Compilation information
-----------------------

 Who compiled             | rfaber
 Host                     | hpclogin1
 System                   | Linux-2.6.32-696.1.1.el6.x86_64
 CMake generator          | Unix Makefiles
 Processor                | x86_64
 64-bit integers          | ON
 MPI                      | OFF
 Fortran compiler         | /opt/intel/2016update2/compilers_and_libraries_201
                          | 6.2.181/linux/bin/intel64/ifort
 Fortran compiler version | ifort (IFORT) 16.0.2 20160204
 C compiler               | /opt/intel/2016update2/compilers_and_libraries_201
                          | 6.2.181/linux/bin/intel64/icc
 C compiler version       | icc (ICC) 16.0.2 20160204
 C++ compiler             | /opt/intel/2016update2/compilers_and_libraries_201
                          | 6.2.181/linux/bin/intel64/icpc
 C++ compiler version     | icpc (ICC) 16.0.2 20160204
 Static linking           | OFF
 Last Git revision        | bb4d1599ca5680a9f3980451fc8bbefdba436d59
 Git branch               | mlcc
 Configuration time       | 2017-06-13 16:11:03.928841


   Content of the .dal input file
 ----------------------------------

**DALTON
.RUN WAVE FUNCTIONS
*QMMM
.QMMM
**INTEGRALS
.DIPLEN
**WAVE FUNCTIONS
.CC
*PRINT
!To check the origin of excit
.PRINTL
   0 11
*SCF INP
.THRESH
1.0D-7
*CC INP
.CCSD
.THRLEQ
 1.0D-9
.THRENR
 1.0D-10
.FROIMP
4
0
.PRINT
 1
.MAX IT
 1200
.MAXRED
 1200
.MXLRV
1199
*CCSLV
.CCMM
.MXSLIT
200
.MXINIT
4 5
*CCEXCI
.NCCEXC
 15
.CVSEPARA
1
1
*CCLRSD
.DIPOLE
**END OF DALTON INPUT


   Content of the .mol file
 ----------------------------

ATOMBASIS


Atomtypes=4 Charge=0 Nosymm Angstrom
   7.00000    1    Basis=6-311G**
N          0.000000        0.000000        0.000000
   1.00000    3    Basis=6-311G**
H         -0.176866       -0.409297        0.960479
H         -0.023046       -0.813392       -0.631296
H          0.931507        0.348541       -0.053927
   8.00000    4    Basis=6-311G**
O         -0.847267       -2.042467       -1.942800
O         -1.479729        1.651680       -1.740760
O         -0.688901       -3.262795        0.668551
O          2.605288        1.057672        0.403429
   1.00000    8    Basis=6-311G**
H         -1.495398       -2.119808       -2.660884
H         -1.160937       -2.441977       -1.148998
H         -1.320997        1.586289       -2.698714
H         -0.861071        1.090579       -1.225536
H          0.313727       -3.286011        0.711421
H         -0.852874       -4.257805        0.511851
H          2.827842        2.003276        0.560363
H          2.505077        0.765776        1.361344


       *******************************************************************
       *********** Output from DALTON general input processing ***********
       *******************************************************************

 --------------------------------------------------------------------------------
   Overall default print level:    0
   Print level for DALTON.STAT:    1

    HERMIT 1- and 2-electron integral sections will be executed
    "Old" integral transformation used (limited to max 255 basis functions)
    Wave function sections will be executed (SIRIUS module)
 --------------------------------------------------------------------------------


 Changes of defaults for *QMMM  :
 --------------------------------

 +------------------+
 |  WORD: | CHANGE: |
 +------------------+
 |   QMMM |       T |
 +------------------+
 


   ****************************************************************************
   *************** Output of molecule and basis set information ***************
   ****************************************************************************


    The two title cards from your ".mol" input:
    ------------------------------------------------------------------------
 1:                                                                         
 2:                                                                         
    ------------------------------------------------------------------------

  Coordinates are entered in Angstrom and converted to atomic units.
          - Conversion factor : 1 bohr = 0.52917721 A

  Atomic type no.    1
  --------------------
  Nuclear charge:   7.00000
  Number of symmetry independent centers:    1
  Number of basis sets to read;    2
  The basis set is "6-311G**" from the basis set library.
  Basis set file used for this atomic type with Z =   7 :
     "/zhome/9a/4/124800/source/dalton/build-mlcc/basis/6-311G**"

  Info about the basis set file: your basis has no documentation.
  Basis set: 6-311G**                                                                        

  Atomic type no.    2
  --------------------
  Nuclear charge:   1.00000
  Number of symmetry independent centers:    3
  Number of basis sets to read;    2
  The basis set is "6-311G**" from the basis set library.
  Basis set file used for this atomic type with Z =   1 :
     "/zhome/9a/4/124800/source/dalton/build-mlcc/basis/6-311G**"

  Info about the basis set file: your basis has no documentation.
  Basis set: 6-311G**                                                                        

  Atomic type no.    3
  --------------------
  Nuclear charge:   8.00000
  Number of symmetry independent centers:    4
  Number of basis sets to read;    2
  The basis set is "6-311G**" from the basis set library.
  Basis set file used for this atomic type with Z =   8 :
     "/zhome/9a/4/124800/source/dalton/build-mlcc/basis/6-311G**"

  Info about the basis set file: your basis has no documentation.
  Basis set: 6-311G**                                                                        

  Atomic type no.    4
  --------------------
  Nuclear charge:   1.00000
  Number of symmetry independent centers:    8
  Number of basis sets to read;    2
  The basis set is "6-311G**" from the basis set library.
  Basis set file used for this atomic type with Z =   1 :
     "/zhome/9a/4/124800/source/dalton/build-mlcc/basis/6-311G**"

  Info about the basis set file: your basis has no documentation.
  Basis set: 6-311G**                                                                        


                         SYMGRP: Point group information
                         -------------------------------

@    Point group: C1 


                                 Isotopic Masses
                                 ---------------

                           N          14.003074
                           H           1.007825
                           H           1.007825
                           H           1.007825
                           O          15.994915
                           O          15.994915
                           O          15.994915
                           O          15.994915
                           H           1.007825
                           H           1.007825
                           H           1.007825
                           H           1.007825
                           H           1.007825
                           H           1.007825
                           H           1.007825
                           H           1.007825

                       Total mass:    89.068809 amu
                       Natural abundance:  98.514 %

 Center-of-mass coordinates (a.u.):   -0.124654   -1.042029   -0.978496


  Atoms and basis sets
  --------------------

  Number of atom types :    4
  Total number of atoms:   16

  label    atoms   charge   prim   cont     basis
  ----------------------------------------------------------------------
  N           1    7.0000    31    18      [11s5p1d|4s3p1d]                                   
  H           3    1.0000     8     6      [5s1p|3s1p]                                        
  O           4    8.0000    31    18      [11s5p1d|4s3p1d]                                   
  H           8    1.0000     8     6      [5s1p|3s1p]                                        
  ----------------------------------------------------------------------
  total:     16   50.0000   243   156
  ----------------------------------------------------------------------
  Spherical harmonic basis used.

  Threshold for neglecting AO integrals:  1.00D-12


  Cartesian Coordinates (a.u.)
  ----------------------------

  Total number of coordinates:   48
  N       :     1  x   0.0000000000    2  y   0.0000000000    3  z   0.0000000000
  H       :     4  x  -0.3342283008    5  y  -0.7734592338    6  z   1.8150422588
  H       :     7  x  -0.0435506283    8  y  -1.5370881123    9  z  -1.1929765438
  H       :    10  x   1.7602931135   11  y   0.6586470333   12  z  -0.1019072607
  O       :    13  x  -1.6011025847   14  y  -3.8597032493   15  z  -3.6713599156
  O       :    16  x  -2.7962825492   17  y   3.1212228461   18  z  -3.2895596493
  O       :    19  x  -1.3018342172   20  y  -6.1657889520   21  z   1.2633782906
  O       :    22  x   4.9232807967   23  y   1.9987104101   24  z   0.7623703209
  H       :    25  x  -2.8258926679   26  y  -4.0058565576   27  z  -5.0283420104
  H       :    28  x  -2.1938529784   29  y  -4.6146677335   30  z  -2.1712915382
  H       :    31  x  -2.4963225419   32  y   2.9976517651   33  z  -5.0998303497
  H       :    34  x  -1.6271883642   35  y   2.0608956277   36  z  -2.3159273963
  H       :    37  x   0.5928581080   38  y  -6.2096608337   39  z   1.3443908496
  H       :    40  x  -1.6116982791   41  y  -8.0460853436   42  z   0.9672582068
  H       :    43  x   5.3438469048   44  y   3.7856429928   45  z   1.0589326006
  H       :    46  x   4.7339094520   47  y   1.4471069131   48  z   2.5725673219


   Interatomic separations (in Angstrom):
   --------------------------------------

            N           H           H           H           O           O     
            ------      ------      ------      ------      ------      ------
 N     :    0.000000
 H     :    1.058927    0.000000
 H     :    1.029889    1.649455    0.000000
 H     :    0.996039    1.682804    1.610781    0.000000
 O     :    2.943468    3.397898    1.977374    3.528285    0.000000
 O     :    2.819200    3.638924    3.070735    3.218328    3.753339    0.000000
 O     :    3.401085    2.913735    2.851761    4.023611    2.886769    5.530122
 O     :    2.840590    3.194164    3.388167    1.874456    5.199595    4.651640
 H     :    3.716195    4.216473    2.827326    4.333456    0.970412    3.882138
 H     :    2.937894    3.090320    2.053071    3.655748    0.942401    4.148474
 H     :    3.397706    4.322163    3.423063    3.687912    3.736803    0.973215
 H     :    1.852767    2.737960    2.163449    2.266412    3.214131    0.981340
 H     :    3.376746    2.928856    2.833752    3.765286    3.152649    5.797454
 H     :    4.372447    3.933099    3.722819    4.972177    3.306519    6.355251
 H     :    3.510529    3.874128    4.181056    2.590673    6.011679    4.896321
 H     :    2.952132    2.955386    3.585497    2.157128    5.481041    5.127041

            O           O           H           H           H           H     
            ------      ------      ------      ------      ------      ------
 O     :    0.000000
 O     :    5.439523    0.000000
 H     :    3.611370    6.025116    0.000000
 H     :    2.049401    5.370477    1.581599    0.000000
 H     :    5.937309    5.031743    3.710391    4.319047    0.000000
 H     :    4.750692    3.830177    3.573399    3.546087    1.620961    0.000000
 H     :    1.003813    4.920741    4.000675    2.519561    6.167710    4.928133
 H     :    1.020533    6.342313    3.879448    2.480031    6.684333    5.623504
 H     :    6.333300    0.984035    6.787242    6.212290    5.292289    4.198872
 H     :    5.187566    1.006403    6.364646    5.480069    5.638808    4.257746

            H           H           H           H     
            ------      ------      ------      ------
 H     :    0.000000
 H     :    1.531395    0.000000
 H     :    5.858340    7.262999    0.000000
 H     :    4.652031    6.101954    1.509024    0.000000


  Max    interatomic separation is    7.2630 Angstrom (   13.7251 Bohr)
  between atoms   15 and   14, "H     " and "H     ".

  Min HX interatomic separation is    0.9424 Angstrom (    1.7809 Bohr)

  Min YX interatomic separation is    2.8192 Angstrom (    5.3275 Bohr)


  Bond distances (Angstrom):
  --------------------------

                  atom 1     atom 2       distance
                  ------     ------       --------
  bond distance:  H          N            1.058927
  bond distance:  H          N            1.029889
  bond distance:  H          N            0.996039
  bond distance:  H          O            0.970412
  bond distance:  H          O            0.942401
  bond distance:  H          O            0.973215
  bond distance:  H          O            0.981340
  bond distance:  H          O            1.003813
  bond distance:  H          O            1.020533
  bond distance:  H          O            0.984035
  bond distance:  H          O            1.006403


  Bond angles (degrees):
  ----------------------

                  atom 1     atom 2     atom 3         angle
                  ------     ------     ------         -----
  bond angle:     H          N          H            104.299
  bond angle:     H          N          H            109.911
  bond angle:     H          N          H            105.314
  bond angle:     H          O          H            111.544
  bond angle:     H          O          H            112.058
  bond angle:     H          O          H             98.308
  bond angle:     H          O          H             98.594




 Principal moments of inertia (u*A**2) and principal axes
 --------------------------------------------------------

   IA     264.444366          0.426954    0.903954    0.024027
   IB     392.514679          0.683797   -0.340128    0.645550
   IC     585.660620         -0.591720    0.259190    0.763340


 Rotational constants
 --------------------

               A                   B                   C

           1911.0977           1287.5417            862.9213 MHz
            0.063747            0.042948            0.028784 cm-1


@  Nuclear repulsion energy :  190.861782705400 Hartree


                     .---------------------------------------.
                     | Starting in Integral Section (HERMIT) |
                     `---------------------------------------'



 ***************************************************************************************
 ****************** Output from **INTEGRALS input processing (HERMIT) ******************
 ***************************************************************************************



    *************************************************************************
    ****************** Output from HERMIT input processing ******************
    *************************************************************************


 Default print level:        1

 * Nuclear model: Point charge

 Calculation of one- and two-electron Hamiltonian integrals.

 The following one-electron property integrals are calculated as requested:
          - overlap integrals
          - dipole length integrals

 Center of mass  (bohr):     -0.124653504640     -1.042028925888     -0.978496454685
 Operator center (bohr):      0.000000000000      0.000000000000      0.000000000000
 Gauge origin    (bohr):      0.000000000000      0.000000000000      0.000000000000
 Dipole origin   (bohr):      0.000000000000      0.000000000000      0.000000000000
 
  *********************************** 
  QMMM electrostatic potential: 
  Multipole order                                    0
  Isotropic polarization  
  *********************************** 
 
  ---------------- 
  QMMM information 
  ---------------- 
 
  MM coordinates in au 
  -------------------- 
     1      6.730246      7.892362     -8.362991
     2      7.407881      6.772697     -9.713066
     3      4.899325      7.970666     -8.829222
     4     -8.913874     -8.635672      5.384162
     5     -8.205132    -10.298658      5.561674
     6     -9.246997     -8.030949      7.115518
     7     -9.508208     -6.453069     10.033660
     8     -9.004494     -7.091915     11.817504
     9    -11.364847     -6.457075     10.125502
    10      9.027150      6.012353     10.778850
    11     10.791105      6.736552     10.708350
    12      8.686279      4.544306      9.814518
    13     -6.811446     -0.724706      3.114376
    14     -8.642029     -0.549440      3.451095
    15     -6.772933      0.169575      1.418107
    16      7.437263      5.244846     -4.349174
    17      6.817595      6.257246     -2.868761
    18      7.223376      6.336333     -5.750331
    19     -3.453121    -10.108633    -10.120372
    20     -4.982408     -9.684865     -9.093330
    21     -3.667218    -10.551805    -11.926090
    22      3.721574    -10.826424    -11.449979
    23      4.056974    -10.176022     -9.728526
    24      2.657628     -9.409784    -12.095217
    25     11.673696      2.796812     -3.898365
    26     10.054250      3.819051     -4.161899
    27     11.946650      1.836266     -5.454162
    28     -8.489925     -3.781380     -5.690842
    29     -7.945034     -3.082502     -4.122243
    30     -9.969634     -4.747461     -5.088380
    31     -6.449839     -8.705239     -2.151631
    32     -4.867411     -9.341517     -1.328175
    33     -7.151436     -7.572739     -0.930475
    34     -8.568971      2.392911     10.373172
    35     -7.887900      3.743007     11.576997
    36     -9.456320      3.408403      9.058499
    37      9.373412     -0.479367     -0.796850
    38     10.401640      0.884660     -1.766421
    39      7.622547      0.347625     -0.331303
    40     11.287859      8.744596      1.515095
    41     11.141784     10.274798      2.549773
    42     12.376168      9.053623      0.044395
    43      4.065935      4.246354      5.973035
    44      4.451199      5.475292      4.519805
    45      5.565209      3.207770      6.336341
    46     -3.068505     -2.900248     -9.726895
    47     -1.735209     -4.131166    -10.088632
    48     -4.579084     -2.986582    -10.915219
    49    -10.245419      9.020005     11.513880
    50     -9.247721      8.006205     12.638073
    51    -11.576706     10.004303     12.568062
    52     -9.805184      4.992199      5.677716
    53    -10.807327      6.286085      4.778430
    54     -8.167506      5.243155      4.822532
    55      8.703394     -6.454840     11.222035
    56      8.275893     -4.823607     11.922526
    57      8.274442     -7.727033     12.580491
    58     -2.662792    -10.720127      8.526501
    59     -1.289094    -11.652802      7.923021
    60     -2.681962     -9.009976      7.757878
    61      6.370403      9.738443      8.437714
    62      7.316039      8.277172      9.101743
    63      6.091222     10.818130      9.951339
    64     -2.180814      4.994947    -11.136585
    65     -1.045967      6.389081    -10.550171
    66     -1.434805      3.338541    -10.663367
    67      4.534562     -8.877329     -6.480886
    68      4.654511     -7.048486     -6.200044
    69      5.884745     -9.598386     -5.280904
    70      3.764903    -11.626610      0.286692
    71      2.283324    -11.755954     -0.650045
    72      3.224812    -11.481883      2.055328
    73      0.522126     -6.317568    -11.354761
    74     -0.927995     -7.456134    -11.114948
    75      0.730502     -6.173775    -13.275832
    76     -6.846419      5.785529     -8.668361
    77     -6.928488      6.023617     -6.886081
    78     -5.171604      6.127805     -9.244495
    79     -7.006700      0.521854     -1.851433
    80     -8.537720      1.690128     -2.236100
    81     -5.603990      1.663401     -2.550837
    82      4.151564     -5.915389      1.573951
    83      4.446493     -4.537263      2.723838
    84      5.708753     -6.929291      1.486321
    85      1.613754      8.342200     -9.272899
    86      0.942189      9.371566     -7.817175
    87      2.011578      9.851866    -10.398692
    88      4.134466     -1.906815      5.279205
    89      5.489728     -1.010446      6.054650
    90      2.542415     -1.250466      6.288474
    91     -0.917264      1.108835     -8.138143
    92     -1.732136     -0.433337     -8.869853
    93      0.706412      0.645039     -7.507598
    94    -10.559344    -11.245806     -4.490343
    95     -9.194568    -10.296156     -3.524540
    96     -9.795153    -12.964483     -4.482685
    97      6.324934      6.899022      1.206575
    98      5.032121      8.273264      0.741617
    99      8.032071      7.889983      1.268178
   100      3.866104     -3.968867     -4.005065
   101      2.016137     -4.122730     -3.868630
   102      4.611039     -4.239500     -2.293134
   103     -0.205151    -11.485733     -5.798521
   104     -1.716034    -10.977389     -6.775936
   105      1.185040    -10.297511     -6.063715
   106     -6.213081     -2.459505      9.562655
   107     -7.692937     -3.460451      9.722437
   108     -6.671236     -0.665701      9.535807
   109    -11.069165      0.049996     -8.669886
   110    -10.278379      1.021488    -10.026191
   111     -9.598813     -0.970851     -8.143289
   112      0.713489     -0.420190      8.731158
   113     -0.661038      0.388271      7.797766
   114     -0.219849     -1.547516      9.868414
   115     -8.163265     -8.327137     -8.537323
   116     -7.713760     -6.750746     -7.736310
   117     -9.153527     -9.232331     -7.233433
   118     -9.108111      7.266144     -3.307977
   119     -9.788615      5.562297     -3.221839
   120     -7.357926      7.304222     -2.433153
   121      8.247683     -8.126380      1.688489
   122      9.542828     -7.150952      0.807423
   123      9.039324     -9.148924      3.159877
   124     -1.966440    -11.357626     -0.920153
   125     -2.654750    -13.041183     -0.745539
   126     -1.632147    -11.166518     -2.720380
   127      7.442006    -11.224164     -3.469486
   128      6.607894    -11.049610     -1.779173
   129      9.201165    -10.813451     -3.213105
   130     -4.185029      7.391101     -0.852644
   131     -3.171983      5.982323     -1.504396
   132     -4.384106      7.059599      0.970885
   133     -0.963031      5.918312      7.359965
   134     -1.592476      5.335364      9.127612
   135      0.774969      5.415713      7.060822
   136     10.062357    -11.375193      5.134021
   137     11.546756    -10.644376      5.910532
   138      8.970235    -12.231710      6.330864
   139     -5.192589      6.831065      4.199198
   140     -3.638664      6.583069      5.214244
   141     -6.178792      8.112103      5.164620
   142      4.233920      0.628699     -6.158848
   143      4.232429     -0.780487     -4.850345
   144      4.796280      2.039069     -5.047311
   145     11.367923      0.031630      3.884387
   146     11.729044      1.814738      4.213895
   147     10.440839     -0.078735      2.378672
   148     10.056837    -11.716587     -9.457047
   149     11.018534    -11.608030     -7.791770
   150      8.527639    -12.707180     -8.848068
   151     -7.901952     -5.893789      1.662778
   152     -7.188000     -4.212685      1.746205
   153     -8.635788     -6.260254      3.314256
   154      7.692792     -1.589282    -10.209468
   155      9.292112     -1.050697     -9.442105
   156      6.548723     -1.483643     -8.790078
   157      8.331572      1.327157      8.711885
   158      9.359995      0.490015      7.472342
   159      7.902908      0.050065     10.057028
   160     -2.860788     -5.629230      6.545834
   161     -4.284774     -4.403882      7.112704
   162     -2.406889     -5.364844      4.723197
   163     -7.356131     10.159952      7.547324
   164     -8.401711      9.703933      9.030604
   165     -5.759435     10.564406      8.235576
   166     -2.999137      1.533165      6.293260
   167     -2.674157      3.209828      5.900657
   168     -4.439532      0.873386      5.252174
   169      2.652690    -11.507158      5.254304
   170      3.004377     -9.762975      5.699431
   171      3.752599    -12.636268      6.333621
   172      3.933497     -6.434075      7.938029
   173      3.983584     -4.893391      6.833219
   174      5.756569     -6.699024      8.267610
   175     11.580153     -4.927089     -2.109584
   176     12.712448     -5.090934     -0.628394
   177     10.361249     -3.625368     -1.894842
 
  MM charges 
  ---------- 
     1     -0.674440
     2      0.337220
     3      0.337220
     4     -0.674440
     5      0.337220
     6      0.337220
     7     -0.674440
     8      0.337220
     9      0.337220
    10     -0.674440
    11      0.337220
    12      0.337220
    13     -0.674440
    14      0.337220
    15      0.337220
    16     -0.674440
    17      0.337220
    18      0.337220
    19     -0.674440
    20      0.337220
    21      0.337220
    22     -0.674440
    23      0.337220
    24      0.337220
    25     -0.674440
    26      0.337220
    27      0.337220
    28     -0.674440
    29      0.337220
    30      0.337220
    31     -0.674440
    32      0.337220
    33      0.337220
    34     -0.674440
    35      0.337220
    36      0.337220
    37     -0.674440
    38      0.337220
    39      0.337220
    40     -0.674440
    41      0.337220
    42      0.337220
    43     -0.674440
    44      0.337220
    45      0.337220
    46     -0.674440
    47      0.337220
    48      0.337220
    49     -0.674440
    50      0.337220
    51      0.337220
    52     -0.674440
    53      0.337220
    54      0.337220
    55     -0.674440
    56      0.337220
    57      0.337220
    58     -0.674440
    59      0.337220
    60      0.337220
    61     -0.674440
    62      0.337220
    63      0.337220
    64     -0.674440
    65      0.337220
    66      0.337220
    67     -0.674440
    68      0.337220
    69      0.337220
    70     -0.674440
    71      0.337220
    72      0.337220
    73     -0.674440
    74      0.337220
    75      0.337220
    76     -0.674440
    77      0.337220
    78      0.337220
    79     -0.674440
    80      0.337220
    81      0.337220
    82     -0.674440
    83      0.337220
    84      0.337220
    85     -0.674440
    86      0.337220
    87      0.337220
    88     -0.674440
    89      0.337220
    90      0.337220
    91     -0.674440
    92      0.337220
    93      0.337220
    94     -0.674440
    95      0.337220
    96      0.337220
    97     -0.674440
    98      0.337220
    99      0.337220
   100     -0.674440
   101      0.337220
   102      0.337220
   103     -0.674440
   104      0.337220
   105      0.337220
   106     -0.674440
   107      0.337220
   108      0.337220
   109     -0.674440
   110      0.337220
   111      0.337220
   112     -0.674440
   113      0.337220
   114      0.337220
   115     -0.674440
   116      0.337220
   117      0.337220
   118     -0.674440
   119      0.337220
   120      0.337220
   121     -0.674440
   122      0.337220
   123      0.337220
   124     -0.674440
   125      0.337220
   126      0.337220
   127     -0.674440
   128      0.337220
   129      0.337220
   130     -0.674440
   131      0.337220
   132      0.337220
   133     -0.674440
   134      0.337220
   135      0.337220
   136     -0.674440
   137      0.337220
   138      0.337220
   139     -0.674440
   140      0.337220
   141      0.337220
   142     -0.674440
   143      0.337220
   144      0.337220
   145     -0.674440
   146      0.337220
   147      0.337220
   148     -0.674440
   149      0.337220
   150      0.337220
   151     -0.674440
   152      0.337220
   153      0.337220
   154     -0.674440
   155      0.337220
   156      0.337220
   157     -0.674440
   158      0.337220
   159      0.337220
   160     -0.674440
   161      0.337220
   162      0.337220
   163     -0.674440
   164      0.337220
   165      0.337220
   166     -0.674440
   167      0.337220
   168      0.337220
   169     -0.674440
   170      0.337220
   171      0.337220
   172     -0.674440
   173      0.337220
   174      0.337220
   175     -0.674440
   176      0.337220
   177      0.337220
 
  MM isotropic polarizabilities in au 
  ----------------------------------- 
     1      5.739350
     2      2.308390
     3      2.308390
     4      5.739350
     5      2.308390
     6      2.308390
     7      5.739350
     8      2.308390
     9      2.308390
    10      5.739350
    11      2.308390
    12      2.308390
    13      5.739350
    14      2.308390
    15      2.308390
    16      5.739350
    17      2.308390
    18      2.308390
    19      5.739350
    20      2.308390
    21      2.308390
    22      5.739350
    23      2.308390
    24      2.308390
    25      5.739350
    26      2.308390
    27      2.308390
    28      5.739350
    29      2.308390
    30      2.308390
    31      5.739350
    32      2.308390
    33      2.308390
    34      5.739350
    35      2.308390
    36      2.308390
    37      5.739350
    38      2.308390
    39      2.308390
    40      5.739350
    41      2.308390
    42      2.308390
    43      5.739350
    44      2.308390
    45      2.308390
    46      5.739350
    47      2.308390
    48      2.308390
    49      5.739350
    50      2.308390
    51      2.308390
    52      5.739350
    53      2.308390
    54      2.308390
    55      5.739350
    56      2.308390
    57      2.308390
    58      5.739350
    59      2.308390
    60      2.308390
    61      5.739350
    62      2.308390
    63      2.308390
    64      5.739350
    65      2.308390
    66      2.308390
    67      5.739350
    68      2.308390
    69      2.308390
    70      5.739350
    71      2.308390
    72      2.308390
    73      5.739350
    74      2.308390
    75      2.308390
    76      5.739350
    77      2.308390
    78      2.308390
    79      5.739350
    80      2.308390
    81      2.308390
    82      5.739350
    83      2.308390
    84      2.308390
    85      5.739350
    86      2.308390
    87      2.308390
    88      5.739350
    89      2.308390
    90      2.308390
    91      5.739350
    92      2.308390
    93      2.308390
    94      5.739350
    95      2.308390
    96      2.308390
    97      5.739350
    98      2.308390
    99      2.308390
   100      5.739350
   101      2.308390
   102      2.308390
   103      5.739350
   104      2.308390
   105      2.308390
   106      5.739350
   107      2.308390
   108      2.308390
   109      5.739350
   110      2.308390
   111      2.308390
   112      5.739350
   113      2.308390
   114      2.308390
   115      5.739350
   116      2.308390
   117      2.308390
   118      5.739350
   119      2.308390
   120      2.308390
   121      5.739350
   122      2.308390
   123      2.308390
   124      5.739350
   125      2.308390
   126      2.308390
   127      5.739350
   128      2.308390
   129      2.308390
   130      5.739350
   131      2.308390
   132      2.308390
   133      5.739350
   134      2.308390
   135      2.308390
   136      5.739350
   137      2.308390
   138      2.308390
   139      5.739350
   140      2.308390
   141      2.308390
   142      5.739350
   143      2.308390
   144      2.308390
   145      5.739350
   146      2.308390
   147      2.308390
   148      5.739350
   149      2.308390
   150      2.308390
   151      5.739350
   152      2.308390
   153      2.308390
   154      5.739350
   155      2.308390
   156      2.308390
   157      5.739350
   158      2.308390
   159      2.308390
   160      5.739350
   161      2.308390
   162      2.308390
   163      5.739350
   164      2.308390
   165      2.308390
   166      5.739350
   167      2.308390
   168      2.308390
   169      5.739350
   170      2.308390
   171      2.308390
   172      5.739350
   173      2.308390
   174      2.308390
   175      5.739350
   176      2.308390
   177      2.308390


     ************************************************************************
     ************************** Output from HERINT **************************
     ************************************************************************



                      Nuclear contribution to dipole moments
                      --------------------------------------

                 au               Debye          C m (/(10**-30)

      x     -4.90933462       -12.47828314       -41.62307225
      y    -53.48134504      -135.93601130      -453.43372613
      z    -47.63345149      -121.07214945      -403.85321984


  Time used in HUCKEL     is       0.73 seconds
  Time used in OVERLAP    is       0.21 seconds
  Time used in POPOVLP    is       0.33 seconds
  Time used in DIPLEN     is       0.43 seconds
  Time used in QUADRUP    is       1.39 seconds
  Time used in KINENE     is       0.30 seconds

 Threshold for neglecting two-electron integrals:  1.00D-12
 HERMIT - Number of two-electron integrals written:    31748336 ( 42.3% )
 HERMIT - Megabytes written:                            363.533

  Time used in TWOINT     is      14.97 seconds
  Total CPU  time used in HERMIT:  18.42 seconds
  Total wall time used in HERMIT:   6.38 seconds


                        .----------------------------------.
                        | End of Integral Section (HERMIT) |
                        `----------------------------------'



                   .--------------------------------------------.
                   | Starting in Wave Function Section (SIRIUS) |
                   `--------------------------------------------'

NCCEXCI for singlet:   15
 CCSD_INPUT: core-val requested
 Requested number of core orbs per sym
                     1
 Indices of requested core orbs
                     1

 *** Output from Huckel module :

     Using EWMO model:          T
     Using EHT  model:          F
     Number of Huckel orbitals each symmetry:   36

 EWMO - Energy Weighted Maximum Overlap - is a Huckel type method,
        which normally is better than Extended Huckel Theory.
 Reference: Linderberg and Ohrn, Propagators in Quantum Chemistry (Wiley, 1973)

 Huckel EWMO eigenvalues for symmetry :  1
          -20.685351     -20.684660     -20.684472     -20.683915     -15.673689
           -1.756806      -1.644230      -1.601624      -1.542765      -1.446909
           -0.834972      -0.817927      -0.777970      -0.762275      -0.750129
           -0.725979      -0.700282      -0.684271      -0.671650      -0.645299
           -0.615313      -0.607505      -0.591977      -0.566659      -0.517092
           -0.260894      -0.244027      -0.229515      -0.219600      -0.186259
           -0.181992      -0.180446      -0.160276      -0.153209      -0.148845
           -0.137018

 **********************************************************************
 *SIRIUS* a direct, restricted step, second order MCSCF program       *
 **********************************************************************

 
     Date and time (Linux)  : Mon Dec 24 23:37:52 2018
     Host name              : n-62-23-8                               

 Title lines from ".mol" input file:
                                                                             
                                                                             

 Print level on unit LUPRI =   2 is   0
 Print level on unit LUW4  =   2 is  11

@    (Integral direct) CC calculation.

@    This is a combination run starting with
@              a restricted, closed shell Hartree-Fock calculation


 Initial molecular orbitals are obtained according to
 ".MOSTART EWMO  " input option

@    QM part is embedded in an environment :

@         Model: QMMM

     Wave function specification
     ============================

     For the specification of the Coupled Cluster: see later.

@    Wave function type        --- CC ---
@    Number of closed shell electrons          50
@    Number of electrons in active shells       0
@    Total charge of the molecule               0

@    Spin multiplicity and 2 M_S                1         0
@    Total number of symmetries                 1 (point group: C1 )
@    Reference state symmetry                   1 (irrep name : A  )

     Orbital specifications
     ======================
@    Abelian symmetry species          All |    1
@                                          |  A  
                                       --- |  ---
@    Occupied SCF orbitals              25 |   25
@    Secondary orbitals                131 |  131
@    Total number of orbitals          156 |  156
@    Number of basis functions         156 |  156

     Optimization information
     ========================
@    Number of configurations                 1
@    Number of orbital rotations           3275
     ------------------------------------------
@    Total number of variables             3276

     Maximum number of Fock   iterations      0
     Maximum number of DIIS   iterations     60
     Maximum number of QC-SCF iterations     60
     Threshold for SCF convergence     1.00D-07


 Changes of defaults for CC:
 ---------------------------


 -Implicit frozen core calculation
 -Excitation energies calculated
 -One-photon absorption strengths will be calculated
 -Oscillator strengths calculated
  
* Read MO coefficients from SIRIUS.RST with label "NEWORB  " and header info: 24Dec18  REORTHO 


 ***********************************************
 ***** DIIS acceleration of SCF iterations *****
 ***********************************************

 C1-DIIS algorithm; max error vectors =    8
 -----------------------------------------------------------------------------

 *** DIIS iteration number    1
 RDSUPM called. NFMAT, ISYMDM(1:NFMAT)                     1
                     1

Calculating AOSUPINT
     (Precalculated two-electron integrals are transformed to P-supermatrix elements.
      Threshold for discarding integrals :  1.00D-12 )
  CPU  time used in FORMSUP    is   7.53 seconds
  WALL time used in FORMSUP    is   9.18 seconds

 ITDIIS, energy, error norm, change in energy, scr.thr., difden:
@ DIIS iter.   1    -359.913157239        3.80913D+00   -3.60D+02  -20    F

 (DIIS_RED) Control Parameters C2DIIS =         F NEVC =    1


 (DIIS_RED) B matrix:

               Column   1
       1      14.50949338
    ==== End of matrix output ====

 DIIS C vector; C2DIIS = F, LAMBDA = -1.45D+01
    1.000000
* Read MO coefficients from SIRIUS.RST with label "NEWORB  " and header info: 24Dec18  DIIS   1
      Virial theorem: -V/T =      1.997535
@      MULPOP N      -0.44; H       0.15; H       0.18; H       0.17; O      -0.64; O      -0.80; O      -0.59; O      -0.61; H       0.30; H       0.32; 
@             H       0.32; H       0.33; H       0.33; H       0.32; H       0.32; H       0.33; 
   1  Level shift: doubly occupied orbital energies shifted by -2.00D-01

 DIIS Fock eigenvalues in symmetry 1
      -20.74502      -20.70445      -20.67157      -20.59153      -15.88880
       -1.57727       -1.53196       -1.51671       -1.48587       -1.39065
       -0.94568       -0.93531       -0.90644       -0.89763       -0.88222
       -0.87360       -0.82467       -0.77584       -0.77397       -0.75906
       -0.74237       -0.72562       -0.71221       -0.69519       -0.68778
        0.10875        0.14754        0.19548        0.20326        0.22157
        0.24456        0.26756        0.30082        0.31960        0.34957
        0.38733        0.43822        0.46221        0.49817        0.54767
        0.56261        0.57741        0.57965        0.60369        0.61300
        0.62232        0.67634        0.86471        0.87267        0.89860
        0.95367        0.98501        0.99481        1.00372        1.04773
        1.07223        1.08733        1.10101        1.11022        1.12500
        1.16141        1.18175        1.26682        1.29161        1.30925
        1.34810        1.36589        1.38860        1.42652        1.43873
        1.45600        1.49874        1.50872        1.52353        1.55954
        1.57934        1.62704        1.66207        1.66613        1.73509
        1.77019        1.78692        1.82119        1.86944        1.90230
        1.91044        1.93925        1.95964        2.02842        2.10252
        2.11229        2.14656        2.25065        2.27749        2.30674
        2.31140        2.32985        2.43047        2.49086        2.54946
        2.57149        2.62097        2.65191        2.68136        2.70545
        2.74439        2.76084        2.77615        2.79202        2.83287
        2.87247        2.93148        2.96802        3.14661        3.32377
        3.37469        3.41045        3.44378        3.45926        3.46039
        3.46798        3.50694        3.58389        3.58781        3.60457
        3.62873        3.67663        3.67918        3.90056        3.94875
        4.10358        4.11189        4.20212        4.22292        4.24329
        4.26926        4.48468        5.02564        5.15768        5.33468
        5.36470        5.39872        5.42771        5.74143        5.78852
        5.83003        5.86868        5.98671        5.99446        6.26121
        6.29216       36.87792       51.53155       51.54389       51.65270
       51.72974
 Time used in FCKEIG, thr_jaco:   4.23D-01  4.30D-02  1.66D-04
 CPU and wall times used in FCKEIG, THR_FCKEIG:   4.24D-01  4.30D-02  3.81D-02
 -----------------------------------------------------------------------------

 *** DIIS iteration number    2
 RDSUPM called. NFMAT, ISYMDM(1:NFMAT)                     1
                     1

 ITDIIS, energy, error norm, change in energy, scr.thr., difden:
@ DIIS iter.   2    -360.710622121        8.86972D-01   -7.97D-01  -20    F

 (DIIS_RED) Control Parameters C2DIIS =         F NEVC =    2


 (DIIS_RED) B matrix:

               Column   1     Column   2
       1      14.50949338
       2       1.07388712     0.78671893
    ==== End of matrix output ====

 DIIS C vector; C2DIIS = F, LAMBDA = -7.80D-01
   -0.021840    1.021840
* Read MO coefficients from SIRIUS.RST with label "NEWORB  " and header info: 24Dec18  DIIS   2
      Virial theorem: -V/T =      2.003989
@      MULPOP N      -0.66; H       0.21; H       0.22; H       0.23; O      -0.55; O      -0.69; O      -0.55; O      -0.54; H       0.27; H       0.27; 
@             H       0.29; H       0.32; H       0.31; H       0.29; H       0.30; H       0.27; 
   2  Level shift: doubly occupied orbital energies shifted by -5.00D-02

 DIIS Fock eigenvalues in symmetry 1
      -20.66762      -20.64068      -20.60893      -20.60887      -15.47722
       -1.41990       -1.38289       -1.38086       -1.35326       -1.13604
       -0.76725       -0.76413       -0.75833       -0.70041       -0.69043
       -0.65443       -0.64368       -0.62944       -0.61659       -0.60289
       -0.58681       -0.57383       -0.55440       -0.54184       -0.44577
        0.14563        0.18105        0.21686        0.23399        0.23952
        0.26539        0.29654        0.32412        0.34278        0.37327
        0.42137        0.48607        0.50977        0.54288        0.58618
        0.60250        0.61472        0.61814        0.63376        0.64738
        0.66653        0.73245        0.91280        0.93241        0.95129
        0.96982        0.99173        1.00859        1.02923        1.07325
        1.09461        1.11978        1.12737        1.13198        1.14197
        1.17376        1.21714        1.31617        1.35551        1.37894
        1.39593        1.42050        1.43788        1.45616        1.48373
        1.51976        1.53388        1.55479        1.57364        1.59884
        1.62631        1.67626        1.69200        1.71840        1.77713
        1.82475        1.85338        1.88463        1.93284        1.97277
        1.97548        1.99475        2.01802        2.09940        2.16034
        2.20027        2.20447        2.31436        2.33111        2.34928
        2.37451        2.39333        2.49456        2.57232        2.60988
        2.65066        2.67816        2.69816        2.74556        2.78025
        2.80051        2.81839        2.84038        2.88478        2.90769
        2.96484        3.04991        3.07850        3.24483        3.41474
        3.42813        3.43992        3.46505        3.47237        3.48447
        3.49257        3.54461        3.58600        3.61732        3.63203
        3.64990        3.65996        3.69620        3.91828        3.97293
        4.07743        4.12306        4.20841        4.22105        4.25003
        4.28359        4.63762        5.19805        5.29420        5.33074
        5.33951        5.35420        5.42110        5.65869        5.77881
        5.82810        5.85891        5.99918        6.00620        6.23040
        6.26399       37.13557       51.46196       51.49104       51.53482
       51.57011
 Time used in FCKEIG, thr_jaco:   2.92D-01  3.00D-02  3.87D-05
 CPU and wall times used in FCKEIG, THR_FCKEIG:   2.92D-01  3.00D-02  8.87D-03
 -----------------------------------------------------------------------------

 *** DIIS iteration number    3
 RDSUPM called. NFMAT, ISYMDM(1:NFMAT)                     1
                     1

 ITDIIS, energy, error norm, change in energy, scr.thr., difden:
@ DIIS iter.   3    -360.768782973        3.05068D-01   -5.82D-02  -20    F

 (DIIS_RED) Control Parameters C2DIIS =         F NEVC =    3


 (DIIS_RED) B matrix:

               Column   1     Column   2     Column   3
       1      14.50949338
       2       1.07388712     0.78671893
       3       0.56282340     0.09120002     0.09306653
    ==== End of matrix output ====

 DIIS C vector; C2DIIS = F, LAMBDA = -7.61D-02
   -0.035965    0.029129    1.006836
* Read MO coefficients from SIRIUS.RST with label "NEWORB  " and header info: 24Dec18  DIIS   3
      Virial theorem: -V/T =      2.001456
@      MULPOP N      -0.62; H       0.19; H       0.21; H       0.22; O      -0.60; O      -0.76; O      -0.62; O      -0.60; H       0.30; H       0.30; 
@             H       0.34; H       0.36; H       0.34; H       0.31; H       0.33; H       0.29; 
   3  Level shift: doubly occupied orbital energies shifted by -2.50D-02

 DIIS Fock eigenvalues in symmetry 1
      -20.58660      -20.53995      -20.52749      -20.51121      -15.56053
       -1.37463       -1.33760       -1.32176       -1.31197       -1.13903
       -0.72381       -0.71931       -0.70602       -0.66110       -0.65418
       -0.62330       -0.61693       -0.57570       -0.56975       -0.56205
       -0.54419       -0.50707       -0.50402       -0.49266       -0.43917
        0.15018        0.18587        0.22082        0.23699        0.24419
        0.26869        0.29947        0.32796        0.34934        0.37782
        0.42508        0.49019        0.51549        0.54905        0.59659
        0.61182        0.62488        0.62754        0.64379        0.65460
        0.67387        0.73626        0.92170        0.93765        0.95314
        0.99037        1.00947        1.01750        1.04025        1.08484
        1.10924        1.13182        1.13932        1.14637        1.15322
        1.18701        1.22897        1.32071        1.36560        1.38167
        1.40744        1.42883        1.44799        1.46681        1.49202
        1.52941        1.54739        1.56693        1.58335        1.61022
        1.63840        1.69112        1.70148        1.72868        1.78944
        1.83528        1.85873        1.88817        1.94095        1.97819
        1.98319        2.00343        2.02440        2.10405        2.17416
        2.19507        2.21636        2.32506        2.34305        2.36649
        2.38793        2.39663        2.50969        2.57959        2.62246
        2.65631        2.68672        2.71081        2.75580        2.78743
        2.80973        2.82684        2.84909        2.88416        2.91373
        2.95964        3.03364        3.06607        3.23608        3.42683
        3.45124        3.46072        3.47390        3.49186        3.50630
        3.51639        3.57416        3.60639        3.63206        3.65587
        3.68253        3.69073        3.72289        3.94521        3.99600
        4.11854        4.15102        4.24483        4.25666        4.27576
        4.31273        4.59046        5.15544        5.28772        5.35770
        5.38141        5.38821        5.45353        5.71931        5.81365
        5.86150        5.89285        6.03261        6.03795        6.28960
        6.30032       37.03078       51.51775       51.53549       51.62445
       51.63981
 Time used in FCKEIG, thr_jaco:   2.65D-01  2.60D-02  1.33D-05
 CPU and wall times used in FCKEIG, THR_FCKEIG:   2.65D-01  2.60D-02  3.05D-03
 -----------------------------------------------------------------------------

 *** DIIS iteration number    4
 RDSUPM called. NFMAT, ISYMDM(1:NFMAT)                     1
                     1

 ITDIIS, energy, error norm, change in energy, scr.thr., difden:
@ DIIS iter.   4    -360.775686131        1.19370D-01   -6.90D-03  -20    F

 (DIIS_RED) Control Parameters C2DIIS =         F NEVC =    4


 (DIIS_RED) B matrix:

               Column   1     Column   2     Column   3     Column   4
       1      14.50949338
       2       1.07388712     0.78671893
       3       0.56282340     0.09120002     0.09306653
       4      -0.02177852     0.06852514    -0.00920349     0.01424927
    ==== End of matrix output ====

 DIIS C vector; C2DIIS = F, LAMBDA = -3.76D-03
    0.000201   -0.097443    0.221323    0.875919
* Read MO coefficients from SIRIUS.RST with label "NEWORB  " and header info: 24Dec18  DIIS   4
      Virial theorem: -V/T =      2.002608
@      MULPOP N      -0.68; H       0.21; H       0.23; H       0.24; O      -0.60; O      -0.76; O      -0.63; O      -0.60; H       0.30; H       0.30; 
@             H       0.34; H       0.36; H       0.35; H       0.31; H       0.34; H       0.29; 
   4  Level shift: doubly occupied orbital energies shifted by -1.25D-02

 DIIS Fock eigenvalues in symmetry 1
      -20.59402      -20.54220      -20.53317      -20.53279      -15.51168
       -1.36941       -1.33153       -1.32034       -1.30536       -1.11507
       -0.71620       -0.71237       -0.70157       -0.65093       -0.64227
       -0.60824       -0.60064       -0.56773       -0.56374       -0.55230
       -0.53350       -0.50211       -0.49501       -0.48314       -0.41387
        0.14911        0.18481        0.21964        0.23710        0.24326
        0.26818        0.30002        0.32807        0.34848        0.37881
        0.42708        0.49321        0.51674        0.55001        0.59514
        0.60926        0.62419        0.62592        0.64208        0.65457
        0.67250        0.73853        0.92320        0.94164        0.95662
        0.98870        1.00666        1.01768        1.03959        1.08361
        1.10668        1.13127        1.13677        1.14316        1.15143
        1.18453        1.22687        1.32142        1.36512        1.38495
        1.40599        1.42901        1.44613        1.46573        1.49188
        1.52775        1.54498        1.56519        1.58073        1.60845
        1.63599        1.68903        1.70015        1.72602        1.78810
        1.83399        1.86189        1.89007        1.93956        1.98043
        1.98105        2.00299        2.02543        2.10752        2.17058
        2.20170        2.21269        2.32392        2.34036        2.36126
        2.38363        2.39828        2.50629        2.57968        2.62286
        2.65788        2.68683        2.70853        2.75332        2.78919
        2.80897        2.82522        2.84852        2.88861        2.91312
        2.96640        3.04453        3.07534        3.24368        3.43179
        3.44844        3.45870        3.47034        3.48699        3.50150
        3.51130        3.57048        3.60249        3.63002        3.65014
        3.67771        3.68095        3.71755        3.93861        3.99089
        4.10825        4.14500        4.23712        4.24762        4.27037
        4.30696        4.61000        5.17389        5.30229        5.34714
        5.36593        5.37907        5.44506        5.70186        5.80462
        5.85238        5.88411        6.02313        6.02834        6.27240
        6.29092       37.06643       51.49825       51.52091       51.60237
       51.61071
 Time used in FCKEIG, thr_jaco:   2.47D-01  2.50D-02  5.21D-06
 CPU and wall times used in FCKEIG, THR_FCKEIG:   2.47D-01  2.50D-02  1.19D-03
 -----------------------------------------------------------------------------

 *** DIIS iteration number    5
 RDSUPM called. NFMAT, ISYMDM(1:NFMAT)                     1
                     1

 ITDIIS, energy, error norm, change in energy, scr.thr., difden:
@ DIIS iter.   5    -360.776703575        2.29092D-02   -1.02D-03  -20    F

 (DIIS_RED) Control Parameters C2DIIS =         F NEVC =    5


 (DIIS_RED) B matrix:

               Column   1     Column   2     Column   3     Column   4     Column   5
       1      14.50949338
       2       1.07388712     0.78671893
       3       0.56282340     0.09120002     0.09306653
       4      -0.02177852     0.06852514    -0.00920349     0.01424927
       5       0.01168030     0.00639951     0.00446784     0.00063150     0.00052483
    ==== End of matrix output ====

 DIIS C vector; C2DIIS = F, LAMBDA = -2.26D-04
    0.001481    0.013505   -0.095707   -0.163802    1.244523
* Read MO coefficients from SIRIUS.RST with label "NEWORB  " and header info: 24Dec18  DIIS   5
      Virial theorem: -V/T =      2.002126
@      MULPOP N      -0.67; H       0.21; H       0.22; H       0.24; O      -0.61; O      -0.77; O      -0.64; O      -0.62; H       0.30; H       0.31; 
@             H       0.35; H       0.36; H       0.35; H       0.32; H       0.35; H       0.29; 

 DIIS Fock eigenvalues in symmetry 1
      -20.57841      -20.52834      -20.51890      -20.51731      -15.49757
       -1.35589       -1.31855       -1.30651       -1.29249       -1.10221
       -0.70374       -0.69949       -0.68864       -0.63840       -0.62967
       -0.59531       -0.58783       -0.55508       -0.55063       -0.53929
       -0.51967       -0.48747       -0.48137       -0.46952       -0.40035
        0.14893        0.18459        0.21946        0.23703        0.24318
        0.26812        0.30001        0.32802        0.34836        0.37898
        0.42728        0.49328        0.51677        0.55005        0.59500
        0.60906        0.62410        0.62585        0.64216        0.65449
        0.67228        0.73864        0.92384        0.94221        0.95730
        0.98985        1.00730        1.01848        1.04013        1.08396
        1.10686        1.13158        1.13718        1.14332        1.15162
        1.18467        1.22699        1.32164        1.36529        1.38508
        1.40605        1.42908        1.44585        1.46591        1.49191
        1.52760        1.54512        1.56531        1.58023        1.60836
        1.63570        1.68923        1.70014        1.72554        1.78808
        1.83377        1.86193        1.89004        1.93910        1.97984
        1.98088        2.00275        2.02531        2.10758        2.17045
        2.20180        2.21214        2.32369        2.34025        2.36122
        2.38324        2.39826        2.50585        2.57937        2.62294
        2.65773        2.68670        2.70826        2.75268        2.78903
        2.80857        2.82461        2.84803        2.88847        2.91254
        2.96651        3.04474        3.07557        3.24390        3.43256
        3.44937        3.45976        3.47104        3.48735        3.50187
        3.51156        3.57147        3.60322        3.63045        3.65095
        3.67797        3.68212        3.71792        3.93953        3.99112
        4.10940        4.14525        4.23820        4.24876        4.27069
        4.30731        4.61076        5.17452        5.30315        5.34889
        5.36799        5.38005        5.44591        5.70375        5.80548
        5.85343        5.88493        6.02402        6.02914        6.27399
        6.29134       37.06801       51.50129       51.52226       51.60497
       51.61277
 Time used in FCKEIG, thr_jaco:   2.29D-01  2.30D-02  1.00D-06
 CPU and wall times used in FCKEIG, THR_FCKEIG:   2.29D-01  2.30D-02  2.29D-04
 -----------------------------------------------------------------------------

 *** DIIS iteration number    6
 RDSUPM called. NFMAT, ISYMDM(1:NFMAT)                     1
                     1

 ITDIIS, energy, error norm, change in energy, scr.thr., difden:
@ DIIS iter.   6    -360.776785961        5.94811D-03   -8.24D-05  -20    F

 (DIIS_RED) Control Parameters C2DIIS =         F NEVC =    6


 (DIIS_RED) B matrix:

               Column   1     Column   2     Column   3     Column   4     Column   5     Column   6
       1      14.50949338
       2       1.07388712     0.78671893
       3       0.56282340     0.09120002     0.09306653
       4      -0.02177852     0.06852514    -0.00920349     0.01424927
       5       0.01168030     0.00639951     0.00446784     0.00063150     0.00052483
       6      -0.00192501    -0.00031005     0.00039116     0.00009478     0.00007241     0.00003538
    ==== End of matrix output ====

 DIIS C vector; C2DIIS = F, LAMBDA = -2.53D-05
    0.000298    0.005580   -0.017097   -0.043811    0.030465    1.024566
* Read MO coefficients from SIRIUS.RST with label "NEWORB  " and header info: 24Dec18  DIIS   6
      Virial theorem: -V/T =      2.002241
@      MULPOP N      -0.67; H       0.21; H       0.22; H       0.24; O      -0.61; O      -0.77; O      -0.64; O      -0.62; H       0.31; H       0.31; 
@             H       0.35; H       0.36; H       0.35; H       0.32; H       0.35; H       0.30; 

 DIIS Fock eigenvalues in symmetry 1
      -20.58011      -20.52904      -20.51915      -20.51799      -15.50010
       -1.35640       -1.31855       -1.30656       -1.29269       -1.10300
       -0.70394       -0.69991       -0.68884       -0.63872       -0.63032
       -0.59591       -0.58844       -0.55542       -0.55088       -0.53955
       -0.52012       -0.48740       -0.48138       -0.46954       -0.40098
        0.14878        0.18451        0.21940        0.23692        0.24310
        0.26803        0.29990        0.32792        0.34830        0.37891
        0.42712        0.49307        0.51653        0.54985        0.59489
        0.60886        0.62393        0.62581        0.64209        0.65434
        0.67210        0.73840        0.92347        0.94189        0.95694
        0.98980        1.00720        1.01830        1.03986        1.08371
        1.10668        1.13132        1.13697        1.14317        1.15132
        1.18453        1.22681        1.32134        1.36505        1.38475
        1.40581        1.42882        1.44564        1.46571        1.49165
        1.52734        1.54497        1.56524        1.58001        1.60822
        1.63561        1.68913        1.69990        1.72536        1.78803
        1.83367        1.86167        1.88979        1.93888        1.97961
        1.98061        2.00262        2.02511        2.10730        2.17008
        2.20132        2.21187        2.32344        2.33992        2.36107
        2.38299        2.39781        2.50571        2.57906        2.62274
        2.65746        2.68654        2.70816        2.75248        2.78879
        2.80850        2.82441        2.84788        2.88806        2.91224
        2.96601        3.04401        3.07489        3.24334        3.43190
        3.44875        3.45934        3.47047        3.48711        3.50164
        3.51130        3.57110        3.60287        3.63012        3.65035
        3.67770        3.68200        3.71786        3.93891        3.99084
        4.10924        4.14519        4.23775        4.24841        4.27042
        4.30724        4.60943        5.17324        5.30199        5.34821
        5.36742        5.37981        5.44562        5.70344        5.80506
        5.85276        5.88457        6.02333        6.02848        6.27369
        6.29122       37.06553       51.49962       51.52157       51.60446
       51.61235
 Time used in FCKEIG, thr_jaco:   2.29D-01  2.40D-02  2.60D-07
 CPU and wall times used in FCKEIG, THR_FCKEIG:   2.29D-01  2.40D-02  5.95D-05
 -----------------------------------------------------------------------------

 *** DIIS iteration number    7
 RDSUPM called. NFMAT, ISYMDM(1:NFMAT)                     1
                     1

 ITDIIS, energy, error norm, change in energy, scr.thr., difden:
@ DIIS iter.   7    -360.776790155        2.39046D-03   -4.19D-06  -20    F

 (DIIS_RED) Control Parameters C2DIIS =         F NEVC =    7


 (DIIS_RED) B matrix:

               Column   1     Column   2     Column   3     Column   4     Column   5     Column   6
       1      14.50949338
       2       1.07388712     0.78671893
       3       0.56282340     0.09120002     0.09306653
       4      -0.02177852     0.06852514    -0.00920349     0.01424927
       5       0.01168030     0.00639951     0.00446784     0.00063150     0.00052483
       6      -0.00192501    -0.00031005     0.00039116     0.00009478     0.00007241     0.00003538
       7       0.00110629     0.00005322     0.00006896    -0.00000558     0.00002628    -0.00000013

               Column   7
       7       0.00000571
    ==== End of matrix output ====

 DIIS C vector; C2DIIS = F, LAMBDA = -1.23D-06
   -0.000228   -0.001604    0.012190    0.022342   -0.176697    0.178828    0.965170
* Read MO coefficients from SIRIUS.RST with label "NEWORB  " and header info: 24Dec18  DIIS   7
      Virial theorem: -V/T =      2.002215
@      MULPOP N      -0.67; H       0.21; H       0.22; H       0.24; O      -0.61; O      -0.77; O      -0.64; O      -0.62; H       0.31; H       0.31; 
@             H       0.35; H       0.36; H       0.36; H       0.32; H       0.35; H       0.30; 

 DIIS Fock eigenvalues in symmetry 1
      -20.57946      -20.52881      -20.51905      -20.51760      -15.49937
       -1.35616       -1.31848       -1.30636       -1.29259       -1.10274
       -0.70388       -0.69976       -0.68868       -0.63864       -0.63018
       -0.59575       -0.58828       -0.55540       -0.55077       -0.53946
       -0.51988       -0.48718       -0.48127       -0.46943       -0.40072
        0.14881        0.18454        0.21943        0.23696        0.24314
        0.26807        0.29992        0.32797        0.34832        0.37897
        0.42720        0.49317        0.51661        0.54993        0.59494
        0.60891        0.62400        0.62586        0.64217        0.65440
        0.67214        0.73850        0.92361        0.94203        0.95710
        0.98993        1.00729        1.01843        1.03999        1.08381
        1.10675        1.13144        1.13709        1.14324        1.15143
        1.18460        1.22687        1.32147        1.36515        1.38486
        1.40589        1.42890        1.44567        1.46582        1.49173
        1.52740        1.54507        1.56535        1.58001        1.60828
        1.63563        1.68924        1.70000        1.72537        1.78813
        1.83372        1.86175        1.88989        1.93891        1.97960
        1.98069        2.00268        2.02519        2.10739        2.17016
        2.20145        2.21188        2.32351        2.34001        2.36117
        2.38301        2.39792        2.50573        2.57911        2.62284
        2.65753        2.68664        2.70822        2.75248        2.78886
        2.80857        2.82444        2.84791        2.88814        2.91225
        2.96616        3.04422        3.07510        3.24351        3.43215
        3.44900        3.45957        3.47069        3.48720        3.50173
        3.51138        3.57132        3.60305        3.63025        3.65060
        3.67780        3.68219        3.71793        3.93915        3.99092
        4.10944        4.14525        4.23799        4.24864        4.27053
        4.30731        4.60984        5.17360        5.30235        5.34853
        5.36774        5.37993        5.44574        5.70370        5.80523
        5.85301        5.88472        6.02358        6.02870        6.27394
        6.29129       37.06624       51.50026       51.52179       51.60474
       51.61257
 Time used in FCKEIG, thr_jaco:   2.25D-01  2.30D-02  1.04D-07
 CPU and wall times used in FCKEIG, THR_FCKEIG:   2.26D-01  2.30D-02  2.39D-05
 -----------------------------------------------------------------------------

 *** DIIS iteration number    8
 RDSUPM called. NFMAT, ISYMDM(1:NFMAT)                     1
                     1

 ITDIIS, energy, error norm, change in energy, scr.thr., difden:
@ DIIS iter.   8    -360.776790628        3.73670D-04   -4.73D-07  -20    F

 (DIIS_RED) Control Parameters C2DIIS =         F NEVC =    8


 (DIIS_RED) B matrix:

               Column   1     Column   2     Column   3     Column   4     Column   5     Column   6
       1      14.50949338
       2       1.07388712     0.78671893
       3       0.56282340     0.09120002     0.09306653
       4      -0.02177852     0.06852514    -0.00920349     0.01424927
       5       0.01168030     0.00639951     0.00446784     0.00063150     0.00052483
       6      -0.00192501    -0.00031005     0.00039116     0.00009478     0.00007241     0.00003538
       7       0.00110629     0.00005322     0.00006896    -0.00000558     0.00002628    -0.00000013
       8      -0.00002273     0.00000100    -0.00000572     0.00000538     0.00000085     0.00000127

               Column   7     Column   8
       7       0.00000571
       8       0.00000012     0.00000014
    ==== End of matrix output ====

 DIIS C vector; C2DIIS = F, LAMBDA = -7.43D-08
    0.000016    0.000068   -0.001121   -0.002146    0.025141   -0.072039   -0.120524    1.170604
* Read MO coefficients from SIRIUS.RST with label "NEWORB  " and header info: 24Dec18  DIIS   8
      Virial theorem: -V/T =      2.002234
@      MULPOP N      -0.67; H       0.21; H       0.22; H       0.24; O      -0.61; O      -0.78; O      -0.64; O      -0.62; H       0.31; H       0.31; 
@             H       0.35; H       0.36; H       0.36; H       0.32; H       0.35; H       0.30; 

 DIIS Fock eigenvalues in symmetry 1
      -20.57955      -20.52885      -20.51901      -20.51758      -15.49939
       -1.35619       -1.31847       -1.30635       -1.29260       -1.10275
       -0.70387       -0.69977       -0.68867       -0.63865       -0.63021
       -0.59578       -0.58829       -0.55542       -0.55078       -0.53947
       -0.51991       -0.48716       -0.48127       -0.46942       -0.40072
        0.14881        0.18454        0.21943        0.23695        0.24313
        0.26807        0.29992        0.32796        0.34832        0.37897
        0.42719        0.49316        0.51661        0.54992        0.59494
        0.60890        0.62400        0.62586        0.64217        0.65439
        0.67213        0.73849        0.92360        0.94202        0.95709
        0.98994        1.00729        1.01843        1.03998        1.08379
        1.10674        1.13143        1.13709        1.14323        1.15142
        1.18460        1.22687        1.32146        1.36514        1.38485
        1.40588        1.42889        1.44566        1.46581        1.49172
        1.52739        1.54506        1.56535        1.58001        1.60828
        1.63563        1.68924        1.69999        1.72536        1.78813
        1.83372        1.86174        1.88989        1.93890        1.97960
        1.98068        2.00268        2.02518        2.10738        2.17014
        2.20144        2.21187        2.32350        2.34000        2.36118
        2.38300        2.39791        2.50573        2.57910        2.62283
        2.65752        2.68663        2.70822        2.75248        2.78884
        2.80857        2.82443        2.84791        2.88813        2.91225
        2.96615        3.04421        3.07509        3.24350        3.43214
        3.44896        3.45957        3.47068        3.48719        3.50172
[...]

 Principal values of diagonalized transition strength matrix:

             a.u.               
 1      -0.00000001
 2      -0.00000000
 3       0.00019848

 Principal axis of diagonalized transition strength matrix:


               Column   1     Column   2     Column   3
       1       0.84448526     0.45145756     0.28815051
       2      -0.39253054     0.88774518    -0.24047508
       3      -0.36436852     0.08996979     0.92689860
    ==== End of matrix output ====


 CCSD   oscillator strength matrix for state nr. 13 of symmetry 1
 CCSD  excitation energy:15.13189946


               Column   1     Column   2     Column   3
       1       0.00016620    -0.00013872     0.00053480
       2      -0.00013872     0.00011578    -0.00044631
       3       0.00053480    -0.00044631     0.00172022
    ==== End of matrix output ====

 Principal values of diagonalized oscillator strength matrix:

             a.u.               
 1      -0.00000006
 2       0.00000000
 3       0.00200227

 Principal axis of diagonalized oscillator strength matrix:


               Column   1     Column   2     Column   3
       1       0.84448526     0.45145756     0.28815051
       2      -0.39253054     0.88774518    -0.24047508
       3      -0.36436852     0.08996979     0.92689860
    ==== End of matrix output ====


 CCSD  Transition strength matrix for state nr. 14 of symmetry 1
 CCSD  excitation energy:15.21278537

 Gauge: length

               Column   1     Column   2     Column   3
       1     2.334531D-06   1.557535D-05  -5.982376D-06
       2     1.557535D-05   1.038813D-04  -3.990962D-05
       3    -5.982376D-06  -3.990962D-05   1.532990D-05
    ==== End of matrix output ====

 Principal values of diagonalized transition strength matrix:

             a.u.               
 1      -0.00000000
 2       0.00000000
 3       0.00012155

 Principal axis of diagonalized transition strength matrix:


               Column   1     Column   2     Column   3
       1      -0.44060582     0.88693584     0.13860495
       2       0.37873678     0.04367514     0.92447333
       3       0.81389493     0.45982312    -0.35515874
    ==== End of matrix output ====


 CCSD   oscillator strength matrix for state nr. 14 of symmetry 1
 CCSD  excitation energy:15.21278537


               Column   1     Column   2     Column   3
       1       0.00002368     0.00015796    -0.00006067
       2       0.00015796     0.00105355    -0.00040476
       3      -0.00006067    -0.00040476     0.00015547
    ==== End of matrix output ====

 Principal values of diagonalized oscillator strength matrix:

             a.u.               
 1      -0.00000003
 2      -0.00000000
 3       0.00123273

 Principal axis of diagonalized oscillator strength matrix:


               Column   1     Column   2     Column   3
       1      -0.44060582     0.88693584     0.13860495
       2       0.37873678     0.04367514     0.92447333
       3       0.81389493     0.45982312    -0.35515874
    ==== End of matrix output ====


 CCSD  Transition strength matrix for state nr. 15 of symmetry 1
 CCSD  excitation energy:15.24801614

 Gauge: length

               Column   1     Column   2     Column   3
       1     1.345682D-04   3.802129D-05  -2.398581D-05
       2     3.802129D-05   1.073425D-05  -6.780076D-06
       3    -2.398581D-05  -6.780076D-06   4.274188D-06
    ==== End of matrix output ====

 Principal values of diagonalized transition strength matrix:

             a.u.               
 1      -0.00000001
 2      -0.00000000
 3       0.00014959

 Principal axis of diagonalized transition strength matrix:


               Column   1     Column   2     Column   3
       1      -0.18763042     0.25531780     0.94847649
       2       0.90499233    -0.33042238     0.26797376
       3       0.38181633     0.90864397    -0.16906336
    ==== End of matrix output ====


 CCSD   oscillator strength matrix for state nr. 15 of symmetry 1
 CCSD  excitation energy:15.24801614


               Column   1     Column   2     Column   3
       1       0.00136793     0.00038650    -0.00024382
       2       0.00038650     0.00010912    -0.00006892
       3      -0.00024382    -0.00006892     0.00004345
    ==== End of matrix output ====

 Principal values of diagonalized oscillator strength matrix:

             a.u.               
 1      -0.00000009
 2      -0.00000000
 3       0.00152059

 Principal axis of diagonalized oscillator strength matrix:


               Column   1     Column   2     Column   3
       1      -0.18763042     0.25531780     0.94847649
       2       0.90499233    -0.33042238     0.26797376
       3       0.38181633     0.90864397    -0.16906336
    ==== End of matrix output ====

  Total time for    135 linear response residues:     143.94 seconds.
  

 *******************************************************************************
 *******************************************************************************
 *                                                                             *
 *                                                                             *
 *                   SUMMARY OF COUPLED CLUSTER CALCULATION                    *
 *                                                                             *
 *                                                                             *
 *******************************************************************************
 *******************************************************************************

                                                                                
                                                                                
            Total SCF   energy:                  -360.7767906476                
            Total MP2   energy:                  -361.8825566742                
            Total CCSD  energy:                  -361.9217863728                
                                                                                
                                                                                
            Total SCF   energy:                  -360.7767906476                
            Total RSTAR energy:                  -361.9217863728                
            Total CCSD  energy:                  -361.9219067437                
                                                                                
                                                                                
            Total SCF   energy:                  -360.7767906476                
            Total RSTAR energy:                  -361.9219067437                
            Total CCSD  energy:                  -361.9219074960                
                                                                                
                                                                                
            Total SCF   energy:                  -360.7767906476                
            Total RSTAR energy:                  -361.9219074960                
            Total CCSD  energy:                  -361.9219075474                
                                                                                
                                                                                
            Total SCF   energy:                  -360.7767906476                
            Total RSTAR energy:                  -361.9219075474                
            Total CCSD  energy:                  -361.9219075489                
                                                                                
                                                                                
            Total SCF   energy:                  -360.7767906476                
            Total RSTAR energy:                  -361.9219075489                
            Total CCSD  energy:                  -361.9219075489                
            CCSD Total  energy:                  -362.3245270931                
            CCSD E(QM/MM)     :                    -0.3987507110                
                                                                                
                                                                                
                                                                                
 +=============================================================================+
 |  sym. | Exci.  |        CCSD       Excitation energies            | ||T1||  |
 |(spin, |        +------------------------------------------------------------+
 | spat) |        |     Hartree    |       eV.      |     cm-1       |    %    |
 +=============================================================================+
 | ^1A   |    1   |    14.8073741  |     402.92914  |   3249842.933  |  88.26  |
 | ^1A   |    2   |    14.8778331  |     404.84643  |   3265306.894  |  88.58  |
 | ^1A   |    3   |    14.8961680  |     405.34535  |   3269330.960  |  88.28  |
 | ^1A   |    4   |    14.9356534  |     406.41980  |   3277997.004  |  88.27  |
 | ^1A   |    5   |    14.9664948  |     407.25904  |   3284765.890  |  88.16  |
 | ^1A   |    6   |    14.9859104  |     407.78737  |   3289027.130  |  87.98  |
 | ^1A   |    7   |    15.0056173  |     408.32362  |   3293352.305  |  87.82  |
 | ^1A   |    8   |    15.0163131  |     408.61467  |   3295699.761  |  88.16  |
 | ^1A   |    9   |    15.0415546  |     409.30152  |   3301239.613  |  88.04  |
 | ^1A   |   10   |    15.0702486  |     410.08233  |   3307537.233  |  87.87  |
 | ^1A   |   11   |    15.0809563  |     410.37370  |   3309887.296  |  87.84  |
 | ^1A   |   12   |    15.0902861  |     410.62757  |   3311934.951  |  87.87  |
 | ^1A   |   13   |    15.1318995  |     411.75993  |   3321068.025  |  87.91  |
 | ^1A   |   14   |    15.2127854  |     413.96095  |   3338820.430  |  87.52  |
 | ^1A   |   15   |    15.2480161  |     414.91963  |   3346552.690  |  87.61  |
 +=============================================================================+
                                                                                
                                                                                
     Total energies in Hartree:                                                 
             1 ^1A       -347.1184023248                                        
             2 ^1A       -347.0479433309                                        
             3 ^1A       -347.0296083402                                        
             4 ^1A       -346.9901229357                                        
             5 ^1A       -346.9592816220                                        
             6 ^1A       -346.9398659847                                        
             7 ^1A       -346.9201590378                                        
             8 ^1A       -346.9094632379                                        
             9 ^1A       -346.8842218157                                        
            10 ^1A       -346.8555277489                                        
            11 ^1A       -346.8448200710                                        
            12 ^1A       -346.8354902705                                        
            13 ^1A       -346.7938769236                                        
            14 ^1A       -346.7129910153                                        
            15 ^1A       -346.6777602436                                        
                                                                                
                                                                                
 +=============================================================================+
 |  sym. | Exci.  |        CCSD       Length   Gauge Oscillator Strength       |
 |(spin, |        +------------------------------------------------------------+
 | spat) |        | Dipole Strength(a.u.) | Oscillator strength  | Direction   |
 +=============================================================================+
 | ^1A   |    1   |        0.0011720      |      0.0115698       |  (Y,Z)      |
 | ^1A   |    2   |        0.0028291      |      0.0280601       |  (Y,Z)      |
 | ^1A   |    3   |        0.0015427      |      0.0153197       |  (Y,Z)      |
 | ^1A   |    4   |        0.0014376      |      0.0143143       |  (Y,Z)      |
 | ^1A   |    5   |        0.0009974      |      0.0099515       |  (Y,Z)      |
 | ^1A   |    6   |        0.0007768      |      0.0077604       |  (Y,Z)      |
 | ^1A   |    7   |        0.0001610      |      0.0016103       |  (Y,Z)      |
 | ^1A   |    8   |        0.0015954      |      0.0159711       |  (Y,Z)      |
 | ^1A   |    9   |        0.0007319      |      0.0073393       |  (Y,Z)      |
 | ^1A   |   10   |        0.0003534      |      0.0035504       |  (Y,Z)      |
 | ^1A   |   11   |        0.0002379      |      0.0023915       |  (Y,Z)      |
 | ^1A   |   12   |        0.0001754      |      0.0017642       |  (Y,Z)      |
 | ^1A   |   13   |        0.0001985      |      0.0020022       |  (Y,Z)      |
 | ^1A   |   14   |        0.0001215      |      0.0012327       |  (Y,Z)      |
 | ^1A   |   15   |        0.0001496      |      0.0015205       |  (Y,Z)      |
 +=============================================================================+

  1 a.u. =        27.21138 eV.  
  1 a.u. =    219474.62934 cm-1.
  

 *******************************************************************************
 *******************************************************************************
 *                                                                             *
 *                                                                             *
 *                      END OF COUPLED CLUSTER CALCULATION                     *
 *                                                                             *
 *                                                                             *
 *******************************************************************************
 *******************************************************************************


 CPU and wall time for CC :  629496.108  124201.843

 
     Date and time (Linux)  : Wed Dec 26 10:10:13 2018
     Host name              : n-62-23-8                               


                      .-------------------------------------.
                      | End of Coupled Cluster Section (CC) |
                      `-------------------------------------'

  Total CPU  time used in DALTON: 175 hours  3 minutes 49 seconds
  Total wall time used in DALTON:  34 hours 32 minutes 28 seconds

 
     Date and time (Linux)  : Wed Dec 26 10:10:13 2018
     Host name              : n-62-23-8                               
  

 +---------------------------------------------------------+ 
 | List of selected calculated molecular properties (a.u.) | 
 +---------------------------------------------------------+ 

  Properties are read from unit number                      4

 CCSD       properties :
 #  1 1 CCSD/MM  Ground state Energy =    -362.3245270931
 #  2 1 E_QM/MM  Ground state Energy =      -0.3987507110
 #  3 1 Sy: 1 Sp: 1 Exc:  1 E_tot:   -347.1184023248 w:     14.8073740573 E_grs:   -361.9257763821
 #  4 1 Exctot   Excited state Energy =    -347.1184023248
 #  5 1 Sy: 1 Sp: 1 Exc:  2 E_tot:   -347.0479433309 w:     14.8778330512 E_grs:   -361.9257763821
 #  6 1 Exctot   Excited state Energy =    -347.0479433309
 #  7 1 Sy: 1 Sp: 1 Exc:  3 E_tot:   -347.0296083402 w:     14.8961680419 E_grs:   -361.9257763821
 #  8 1 Exctot   Excited state Energy =    -347.0296083402
 #  9 1 Sy: 1 Sp: 1 Exc:  4 E_tot:   -346.9901229357 w:     14.9356534463 E_grs:   -361.9257763821
 # 10 1 Exctot   Excited state Energy =    -346.9901229357
 # 11 1 Sy: 1 Sp: 1 Exc:  5 E_tot:   -346.9592816220 w:     14.9664947601 E_grs:   -361.9257763821
 # 12 1 Exctot   Excited state Energy =    -346.9592816220
 # 13 1 Sy: 1 Sp: 1 Exc:  6 E_tot:   -346.9398659847 w:     14.9859103973 E_grs:   -361.9257763821
 # 14 1 Exctot   Excited state Energy =    -346.9398659847
 # 15 1 Sy: 1 Sp: 1 Exc:  7 E_tot:   -346.9201590378 w:     15.0056173443 E_grs:   -361.9257763821
 # 16 1 Exctot   Excited state Energy =    -346.9201590378
 # 17 1 Sy: 1 Sp: 1 Exc:  8 E_tot:   -346.9094632379 w:     15.0163131441 E_grs:   -361.9257763821
 # 18 1 Exctot   Excited state Energy =    -346.9094632379
 # 19 1 Sy: 1 Sp: 1 Exc:  9 E_tot:   -346.8842218157 w:     15.0415545664 E_grs:   -361.9257763821
 # 20 1 Exctot   Excited state Energy =    -346.8842218157
 # 21 1 Sy: 1 Sp: 1 Exc: 10 E_tot:   -346.8555277489 w:     15.0702486332 E_grs:   -361.9257763821
 # 22 1 Exctot   Excited state Energy =    -346.8555277489
 # 23 1 Sy: 1 Sp: 1 Exc: 11 E_tot:   -346.8448200710 w:     15.0809563111 E_grs:   -361.9257763821
 # 24 1 Exctot   Excited state Energy =    -346.8448200710
 # 25 1 Sy: 1 Sp: 1 Exc: 12 E_tot:   -346.8354902705 w:     15.0902861116 E_grs:   -361.9257763821
 # 26 1 Exctot   Excited state Energy =    -346.8354902705
 # 27 1 Sy: 1 Sp: 1 Exc: 13 E_tot:   -346.7938769236 w:     15.1318994585 E_grs:   -361.9257763821
 # 28 1 Exctot   Excited state Energy =    -346.7938769236
 # 29 1 Sy: 1 Sp: 1 Exc: 14 E_tot:   -346.7129910153 w:     15.2127853668 E_grs:   -361.9257763821
 # 30 1 Exctot   Excited state Energy =    -346.7129910153
 # 31 1 Sy: 1 Sp: 1 Exc: 15 E_tot:   -346.6777602436 w:     15.2480161384 E_grs:   -361.9257763821
 # 32 1 Exctot   Excited state Energy =    -346.6777602436
 # 33 1 |<O|XDIPLEN |i(14.807374)>| =     0.00228149
 # 35 1 |<O|XDIPLEN |i(14.877833)>| =     0.02614176
 # 37 1 |<O|XDIPLEN |i(14.896168)>| =     0.01229351
 # 39 1 |<O|XDIPLEN |i(14.935653)>| =     0.00058416
 # 41 1 |<O|XDIPLEN |i(14.966495)>| =     0.03050078
 # 43 1 |<O|XDIPLEN |i(14.985910)>| =     0.01651533
 # 45 1 |<O|XDIPLEN |i(15.005617)>| =     0.00475664
 # 47 1 |<O|XDIPLEN |i(15.016313)>| =     0.03314708
 # 49 1 |<O|XDIPLEN |i(15.041555)>| =     0.01278721
 # 51 1 |<O|XDIPLEN |i(15.070249)>| =     0.01745842
 # 53 1 |<O|XDIPLEN |i(15.080956)>| =     0.00204308
 # 55 1 |<O|XDIPLEN |i(15.090286)>| =     0.01122022
 # 57 1 |<O|XDIPLEN |i(15.131899)>| =     0.00405900
 # 59 1 |<O|XDIPLEN |i(15.212785)>| =     0.00152792
 # 61 1 |<O|XDIPLEN |i(15.248016)>| =     0.01160035
 # 63 1 |<O|YDIPLEN |i(14.807374)>| =     0.01645122
 # 65 1 |<O|YDIPLEN |i(14.877833)>| =     0.00200394
 # 67 1 |<O|YDIPLEN |i(14.896168)>| =     0.02913646
 # 69 1 |<O|YDIPLEN |i(14.935653)>| =     0.03787822
 # 71 1 |<O|YDIPLEN |i(14.966495)>| =     0.00818771
 # 73 1 |<O|YDIPLEN |i(14.985910)>| =     0.01969368
 # 75 1 |<O|YDIPLEN |i(15.005617)>| =     0.00973900
 # 77 1 |<O|YDIPLEN |i(15.016313)>| =     0.01840514
 # 79 1 |<O|YDIPLEN |i(15.041555)>| =     0.01514557
 # 81 1 |<O|YDIPLEN |i(15.070249)>| =     0.00696946
 # 83 1 |<O|YDIPLEN |i(15.080956)>| =     0.01506064
 # 85 1 |<O|YDIPLEN |i(15.090286)>| =     0.00697362
 # 87 1 |<O|YDIPLEN |i(15.131899)>| =     0.00338775
 # 89 1 |<O|YDIPLEN |i(15.212785)>| =     0.01019222
 # 91 1 |<O|YDIPLEN |i(15.248016)>| =     0.00327632
 # 93 1 |<O|ZDIPLEN |i(14.807374)>| =     0.02993640
 # 95 1 |<O|ZDIPLEN |i(14.877833)>| =     0.04627793
 # 97 1 |<O|ZDIPLEN |i(14.896168)>| =     0.02329349
 # 99 1 |<O|ZDIPLEN |i(14.935653)>| =     0.00158078
 #101 1 |<O|ZDIPLEN |i(14.966495)>| =     0.00020808
 #103 1 |<O|ZDIPLEN |i(14.985910)>| =     0.01077843
 #105 1 |<O|ZDIPLEN |i(15.005617)>| =     0.00659545
 #107 1 |<O|ZDIPLEN |i(15.016313)>| =     0.01256589
 #109 1 |<O|ZDIPLEN |i(15.041555)>| =     0.01841191
 #111 1 |<O|ZDIPLEN |i(15.070249)>| =     0.00013092
 #113 1 |<O|ZDIPLEN |i(15.080956)>| =     0.00262104
 #115 1 |<O|ZDIPLEN |i(15.090286)>| =     0.00091688
 #117 1 |<O|ZDIPLEN |i(15.131899)>| =     0.01305844
 #119 1 |<O|ZDIPLEN |i(15.212785)>| =     0.00391534
 #121 1 |<O|ZDIPLEN |i(15.248016)>| =     0.00206741

 THE_END   
