

     ************************************************************************
     *************** Dalton - An Electronic Structure Program ***************
     ************************************************************************

    This is output from DALTON release Dalton2017.alpha (2016)
         ( Web site: http://daltonprogram.org )

   ----------------------------------------------------------------------------

    NOTE:
     
    Dalton is an experimental code for the evaluation of molecular
    properties using (MC)SCF, DFT, CI, and CC wave functions.
    The authors accept no responsibility for the performance of
    the code or for the correctness of the results.
     
    The code (in whole or part) is provided under a licence and
    is not to be reproduced for further distribution without
    the written permission of the authors or their representatives.
     
    See the home page "http://daltonprogram.org" for further information.
     
    If results obtained with this code are published,
    the appropriate citations would be both of:
     
       K. Aidas, C. Angeli, K. L. Bak, V. Bakken, R. Bast,
       L. Boman, O. Christiansen, R. Cimiraglia, S. Coriani,
       P. Dahle, E. K. Dalskov, U. Ekstroem,
       T. Enevoldsen, J. J. Eriksen, P. Ettenhuber, B. Fernandez,
       L. Ferrighi, H. Fliegl, L. Frediani, K. Hald, A. Halkier,
       C. Haettig, H. Heiberg, T. Helgaker, A. C. Hennum,
       H. Hettema, E. Hjertenaes, S. Hoest, I.-M. Hoeyvik,
       M. F. Iozzi, B. Jansik, H. J. Aa. Jensen, D. Jonsson,
       P. Joergensen, J. Kauczor, S. Kirpekar,
       T. Kjaergaard, W. Klopper, S. Knecht, R. Kobayashi, H. Koch,
       J. Kongsted, A. Krapp, K. Kristensen, A. Ligabue,
       O. B. Lutnaes, J. I. Melo, K. V. Mikkelsen, R. H. Myhre,
       C. Neiss, C. B. Nielsen, P. Norman, J. Olsen,
       J. M. H. Olsen, A. Osted, M. J. Packer, F. Pawlowski,
       T. B. Pedersen, P. F. Provasi, S. Reine, Z. Rinkevicius,
       T. A. Ruden, K. Ruud, V. Rybkin, P. Salek, C. C. M. Samson,
       A. Sanchez de Meras, T. Saue, S. P. A. Sauer,
       B. Schimmelpfennig, K. Sneskov, A. H. Steindal,
       K. O. Sylvester-Hvid, P. R. Taylor, A. M. Teale,
       E. I. Tellgren, D. P. Tew, A. J. Thorvaldsen, L. Thoegersen,
       O. Vahtras, M. A. Watson, D. J. D. Wilson, M. Ziolkowski
       and H. Agren,
       "The Dalton quantum chemistry program system",
       WIREs Comput. Mol. Sci. 2014, 4:269–284 (doi: 10.1002/wcms.1172)
     
    and
     
       Dalton, a Molecular Electronic Structure Program,
       Release Dalton2017.alpha (2016), see http://daltonprogram.org
   ----------------------------------------------------------------------------

    Authors in alphabetical order (major contribution(s) in parenthesis):

  Kestutis Aidas,           Vilnius University,           Lithuania   (QM/MM)
  Celestino Angeli,         University of Ferrara,        Italy       (NEVPT2)
  Keld L. Bak,              UNI-C,                        Denmark     (AOSOPPA, non-adiabatic coupling, magnetic properties)
  Vebjoern Bakken,          University of Oslo,           Norway      (DALTON; geometry optimizer, symmetry detection)
  Radovan Bast,             UiT The Arctic U. of Norway,  Norway      (DALTON installation and execution frameworks)
  Pablo Baudin,             University of Valencia,       Spain       (Cholesky excitation energies)
  Linus Boman,              NTNU,                         Norway      (Cholesky decomposition and subsystems)
  Ove Christiansen,         Aarhus University,            Denmark     (CC module)
  Renzo Cimiraglia,         University of Ferrara,        Italy       (NEVPT2)
  Sonia Coriani,            University of Trieste,        Italy       (CC module, MCD in RESPONS)
  Janusz Cukras,            University of Trieste,        Italy       (MChD in RESPONS)
  Paal Dahle,               University of Oslo,           Norway      (Parallelization)
  Erik K. Dalskov,          UNI-C,                        Denmark     (SOPPA)
  Thomas Enevoldsen,        Univ. of Southern Denmark,    Denmark     (SOPPA)
  Janus J. Eriksen,         Aarhus University,            Denmark     (Polarizable embedding model, TDA)
  Rasmus Faber,             University of Copenhagen,     Denmark     (Vib.avg. NMR with SOPPA, parallel AO-SOPPA)
  Berta Fernandez,          U. of Santiago de Compostela, Spain       (doublet spin, ESR in RESPONS)
  Lara Ferrighi,            Aarhus University,            Denmark     (PCM Cubic response)
  Heike Fliegl,             University of Oslo,           Norway      (CCSD(R12))
  Luca Frediani,            UiT The Arctic U. of Norway,  Norway      (PCM)
  Bin Gao,                  UiT The Arctic U. of Norway,  Norway      (Gen1Int library)
  Christof Haettig,         Ruhr-University Bochum,       Germany     (CC module)
  Kasper Hald,              Aarhus University,            Denmark     (CC module)
  Asger Halkier,            Aarhus University,            Denmark     (CC module)
  Frederik Beyer Hansen,    University of Copenhagen,     Denmark     (Parallel AO-SOPPA)
  Erik D. Hedegaard,        Univ. of Southern Denmark,    Denmark     (Polarizable embedding model, QM/MM)
  Hanne Heiberg,            University of Oslo,           Norway      (geometry analysis, selected one-electron integrals)
  Trygve Helgaker,          University of Oslo,           Norway      (DALTON; ABACUS, ERI, DFT modules, London, and much more)
  Alf Christian Hennum,     University of Oslo,           Norway      (Parity violation)
  Hinne Hettema,            University of Auckland,       New Zealand (quadratic response in RESPONS; SIRIUS supersymmetry)
  Eirik Hjertenaes,         NTNU,                         Norway      (Cholesky decomposition)
  Pi A. B. Haase,           University of Copenhagen,     Denmark     (Triplet AO-SOPPA)
  Maria Francesca Iozzi,    University of Oslo,           Norway      (RPA)
  Brano Jansik              Technical Univ. of Ostrava    Czech Rep.  (DFT cubic response)
  Hans Joergen Aa. Jensen,  Univ. of Southern Denmark,    Denmark     (DALTON; SIRIUS, RESPONS, ABACUS modules, London, and much more)
  Dan Jonsson,              UiT The Arctic U. of Norway,  Norway      (cubic response in RESPONS module)
  Poul Joergensen,          Aarhus University,            Denmark     (RESPONS, ABACUS, and CC modules)
  Maciej Kaminski,          University of Warsaw,         Poland      (CPPh in RESPONS)
  Joanna Kauczor,           Linkoeping University,        Sweden      (Complex polarization propagator (CPP) module)
  Sheela Kirpekar,          Univ. of Southern Denmark,    Denmark     (Mass-velocity & Darwin integrals)
  Wim Klopper,              KIT Karlsruhe,                Germany     (R12 code in CC, SIRIUS, and ABACUS modules)
  Stefan Knecht,            ETH Zurich,                   Switzerland (Parallel CI and MCSCF)
  Rika Kobayashi,           Australian National Univ.,    Australia   (DIIS in CC, London in MCSCF)
  Henrik Koch,              NTNU,                         Norway      (CC module, Cholesky decomposition)
  Jacob Kongsted,           Univ. of Southern Denmark,    Denmark     (Polarizable embedding model, QM/MM)
  Andrea Ligabue,           University of Modena,         Italy       (CTOCD, AOSOPPA)
  Nanna H. List             Univ. of Southern Denmark,    Denmark     (Polarizable embedding model)
  Ola B. Lutnaes,           University of Oslo,           Norway      (DFT Hessian)
  Juan I. Melo,             University of Buenos Aires,   Argentina   (LRESC, Relativistic Effects on NMR Shieldings)
  Kurt V. Mikkelsen,        University of Copenhagen,     Denmark     (MC-SCRF and QM/MM)
  Rolf H. Myhre,            NTNU,                         Norway      (Cholesky, subsystems and ECC2)
  Christian Neiss,          Univ. Erlangen-Nuernberg,     Germany     (CCSD(R12))
  Christian B. Nielsen,     University of Copenhagen,     Denmark     (QM/MM)
  Patrick Norman,           Linkoeping University,        Sweden      (Cubic response and complex frequency response in RESPONS)
  Jeppe Olsen,              Aarhus University,            Denmark     (SIRIUS CI/density modules)
  Jogvan Magnus H. Olsen,   Univ. of Southern Denmark,    Denmark     (Polarizable embedding model, QM/MM)
  Anders Osted,             Copenhagen University,        Denmark     (QM/MM)
  Martin J. Packer,         University of Sheffield,      UK          (SOPPA)
  Filip Pawlowski,          Kazimierz Wielki University,  Poland      (CC3)
  Morten N. Pedersen,       Univ. of Southern Denmark,    Denmark     (Polarizable embedding model)
  Thomas B. Pedersen,       University of Oslo,           Norway      (Cholesky decomposition)
  Patricio F. Provasi,      University of Northeastern,   Argentina   (Analysis of coupling constants in localized orbitals)
  Zilvinas Rinkevicius,     KTH Stockholm,                Sweden      (open-shell DFT, ESR)
  Elias Rudberg,            KTH Stockholm,                Sweden      (DFT grid and basis info)
  Torgeir A. Ruden,         University of Oslo,           Norway      (Numerical derivatives in ABACUS)
  Kenneth Ruud,             UiT The Arctic U. of Norway,  Norway      (DALTON; ABACUS magnetic properties and much more)
  Pawel Salek,              KTH Stockholm,                Sweden      (DALTON; DFT code)
  Claire C. M. Samson       University of Karlsruhe       Germany     (Boys localization, r12 integrals in ERI)
  Alfredo Sanchez de Meras, University of Valencia,       Spain       (CC module, Cholesky decomposition)
  Trond Saue,               Paul Sabatier University,     France      (direct Fock matrix construction)
  Stephan P. A. Sauer,      University of Copenhagen,     Denmark     (SOPPA(CCSD), SOPPA prop., AOSOPPA, vibrational g-factors)
  Bernd Schimmelpfennig,    Forschungszentrum Karlsruhe,  Germany     (AMFI module)
  Kristian Sneskov,         Aarhus University,            Denmark     (Polarizable embedding model, QM/MM)
  Arnfinn H. Steindal,      UiT The Arctic U. of Norway,  Norway      (parallel QM/MM, Polarizable embedding model)
  Casper Steinmann,         Univ. of Southern Denmark,    Denmark     (QFIT, Polarizable embedding model)
  K. O. Sylvester-Hvid,     University of Copenhagen,     Denmark     (MC-SCRF)
  Peter R. Taylor,          VLSCI/Univ. of Melbourne,     Australia   (Symmetry handling ABACUS, integral transformation)
  Andrew M. Teale,          University of Nottingham,     England     (DFT-AC, DFT-D)
  David P. Tew,             University of Bristol,        England     (CCSD(R12))
  Olav Vahtras,             KTH Stockholm,                Sweden      (triplet response, spin-orbit, ESR, TDDFT, open-shell DFT)
  David J. Wilson,          La Trobe University,          Australia   (DFT Hessian and DFT magnetizabilities)
  Hans Agren,               KTH Stockholm,                Sweden      (SIRIUS module, RESPONS, MC-SCRF solvation model)
 --------------------------------------------------------------------------------

     Date and time (Linux)  : Fri Dec 28 11:44:09 2018
     Host name              : n-62-29-5                               

 * Work memory size             :  1280000000 =  9.537 gigabytes.

 * Directories for basis set searches:
   1) /zhome/37/3/129401/NH3NH4/CCSD/AIMD_SAMPLING/nh3_4h2o_nd
   2) /zhome/9a/4/124800/source/dalton/build-mlcc/basis


Compilation information
-----------------------

 Who compiled             | rfaber
 Host                     | hpclogin1
 System                   | Linux-2.6.32-696.1.1.el6.x86_64
 CMake generator          | Unix Makefiles
 Processor                | x86_64
 64-bit integers          | ON
 MPI                      | OFF
 Fortran compiler         | /opt/intel/2016update2/compilers_and_libraries_201
                          | 6.2.181/linux/bin/intel64/ifort
 Fortran compiler version | ifort (IFORT) 16.0.2 20160204
 C compiler               | /opt/intel/2016update2/compilers_and_libraries_201
                          | 6.2.181/linux/bin/intel64/icc
 C compiler version       | icc (ICC) 16.0.2 20160204
 C++ compiler             | /opt/intel/2016update2/compilers_and_libraries_201
                          | 6.2.181/linux/bin/intel64/icpc
 C++ compiler version     | icpc (ICC) 16.0.2 20160204
 Static linking           | OFF
 Last Git revision        | bb4d1599ca5680a9f3980451fc8bbefdba436d59
 Git branch               | mlcc
 Configuration time       | 2017-06-13 16:11:03.928841


   Content of the .dal input file
 ----------------------------------

**DALTON
.RUN WAVE FUNCTIONS
*QMMM
.QMMM
**INTEGRALS
.DIPLEN
**WAVE FUNCTIONS
.CC
*PRINT
!To check the origin of excit
.PRINTL
   0 11
*SCF INP
.THRESH
1.0D-7
*CC INP
.CCSD
.THRLEQ
 1.0D-9
.THRENR
 1.0D-10
.FROIMP
4
0
.PRINT
 1
.MAX IT
 1200
.MAXRED
 1200
.MXLRV
1199
*CCSLV
.CCMM
.MXSLIT
200
.MXINIT
4 5
*CCEXCI
.NCCEXC
 15
.CVSEPARA
1
1
*CCLRSD
.DIPOLE
**END OF DALTON INPUT


   Content of the .mol file
 ----------------------------

ATOMBASIS


Atomtypes=4 Charge=0 Nosymm Angstrom
   7.00000    1    Basis=6-311G**
N          0.000000        0.000000        0.000000
   1.00000    3    Basis=6-311G**
H          0.193190        0.847583        0.485074
H          0.296980       -0.725619        0.603775
H          0.619542       -0.058924       -0.816684
   8.00000    4    Basis=6-311G**
O          1.667301        2.589083        0.362273
O         -2.714387       -0.895398       -0.208987
O          2.056822       -1.006374       -2.783338
O         -0.041493       -2.449275        1.951326
   1.00000    8    Basis=6-311G**
H          1.665442        2.462377       -0.633272
H          1.433811        3.521039        0.453629
H         -3.143875       -1.017952       -1.096930
H         -1.765207       -0.532510       -0.305074
H          2.119365       -1.911733       -2.404849
H          2.938084       -0.609454       -2.508404
H         -0.915595       -2.053144        2.104840
H         -0.064228       -3.363076        1.628132


       *******************************************************************
       *********** Output from DALTON general input processing ***********
       *******************************************************************

 --------------------------------------------------------------------------------
   Overall default print level:    0
   Print level for DALTON.STAT:    1

    HERMIT 1- and 2-electron integral sections will be executed
    "Old" integral transformation used (limited to max 255 basis functions)
    Wave function sections will be executed (SIRIUS module)
 --------------------------------------------------------------------------------


 Changes of defaults for *QMMM  :
 --------------------------------

 +------------------+
 |  WORD: | CHANGE: |
 +------------------+
 |   QMMM |       T |
 +------------------+
 


   ****************************************************************************
   *************** Output of molecule and basis set information ***************
   ****************************************************************************


    The two title cards from your ".mol" input:
    ------------------------------------------------------------------------
 1:                                                                         
 2:                                                                         
    ------------------------------------------------------------------------

  Coordinates are entered in Angstrom and converted to atomic units.
          - Conversion factor : 1 bohr = 0.52917721 A

  Atomic type no.    1
  --------------------
  Nuclear charge:   7.00000
  Number of symmetry independent centers:    1
  Number of basis sets to read;    2
  The basis set is "6-311G**" from the basis set library.
  Basis set file used for this atomic type with Z =   7 :
     "/zhome/9a/4/124800/source/dalton/build-mlcc/basis/6-311G**"

  Info about the basis set file: your basis has no documentation.
  Basis set: 6-311G**                                                                        

  Atomic type no.    2
  --------------------
  Nuclear charge:   1.00000
  Number of symmetry independent centers:    3
  Number of basis sets to read;    2
  The basis set is "6-311G**" from the basis set library.
  Basis set file used for this atomic type with Z =   1 :
     "/zhome/9a/4/124800/source/dalton/build-mlcc/basis/6-311G**"

  Info about the basis set file: your basis has no documentation.
  Basis set: 6-311G**                                                                        

  Atomic type no.    3
  --------------------
  Nuclear charge:   8.00000
  Number of symmetry independent centers:    4
  Number of basis sets to read;    2
  The basis set is "6-311G**" from the basis set library.
  Basis set file used for this atomic type with Z =   8 :
     "/zhome/9a/4/124800/source/dalton/build-mlcc/basis/6-311G**"

  Info about the basis set file: your basis has no documentation.
  Basis set: 6-311G**                                                                        

  Atomic type no.    4
  --------------------
  Nuclear charge:   1.00000
  Number of symmetry independent centers:    8
  Number of basis sets to read;    2
  The basis set is "6-311G**" from the basis set library.
  Basis set file used for this atomic type with Z =   1 :
     "/zhome/9a/4/124800/source/dalton/build-mlcc/basis/6-311G**"

  Info about the basis set file: your basis has no documentation.
  Basis set: 6-311G**                                                                        


                         SYMGRP: Point group information
                         -------------------------------

@    Point group: C1 


                                 Isotopic Masses
                                 ---------------

                           N          14.003074
                           H           1.007825
                           H           1.007825
                           H           1.007825
                           O          15.994915
                           O          15.994915
                           O          15.994915
                           O          15.994915
                           H           1.007825
                           H           1.007825
                           H           1.007825
                           H           1.007825
                           H           1.007825
                           H           1.007825
                           H           1.007825
                           H           1.007825

                       Total mass:    89.068809 amu
                       Natural abundance:  98.514 %

 Center-of-mass coordinates (a.u.):    0.400798   -0.671519   -0.283567


  Atoms and basis sets
  --------------------

  Number of atom types :    4
  Total number of atoms:   16

  label    atoms   charge   prim   cont     basis
  ----------------------------------------------------------------------
  N           1    7.0000    31    18      [11s5p1d|4s3p1d]                                   
  H           3    1.0000     8     6      [5s1p|3s1p]                                        
  O           4    8.0000    31    18      [11s5p1d|4s3p1d]                                   
  H           8    1.0000     8     6      [5s1p|3s1p]                                        
  ----------------------------------------------------------------------
  total:     16   50.0000   243   156
  ----------------------------------------------------------------------
  Spherical harmonic basis used.

  Threshold for neglecting AO integrals:  1.00D-12


  Cartesian Coordinates (a.u.)
  ----------------------------

  Total number of coordinates:   48
  N       :     1  x   0.0000000000    2  y   0.0000000000    3  z   0.0000000000
  H       :     4  x   0.3650761901    5  y   1.6016997382    6  z   0.9166570104
  H       :     7  x   0.5612108646    8  y  -1.3712211811    9  z   1.1409693911
  H       :    10  x   1.1707647029   11  y  -0.1113502222   12  z  -1.5433090907
  O       :    13  x   3.1507422579   14  y   4.8926577849   15  z   0.6845967525
  O       :    16  x  -5.1294480272   17  y  -1.6920569929   18  z  -0.3949281937
  O       :    19  x   3.8868302679   20  y  -1.9017712393   21  z  -5.2597465333
  O       :    22  x  -0.0784104061   23  y  -4.6284589548   24  z   3.6874717206
  H       :    25  x   3.1472292571   26  y   4.6532181465   27  z  -1.1967106426
  H       :    28  x   2.7095101050   29  y   6.6537993854   30  z   0.8572345724
  H       :    31  x  -5.9410627212   32  y  -1.9236504884   33  z  -2.0728972783
  H       :    34  x  -3.3357577839   35  y  -1.0062980588   36  z  -0.5765063079
  H       :    37  x   4.0050194089   38  y  -3.6126517941   39  z  -4.5445059820
  H       :    40  x   5.5521740922   41  y  -1.1517011458   42  z  -4.7401965708
  H       :    43  x  -1.7302237914   44  y  -3.8798798552   45  z   3.9775711369
  H       :    46  x  -0.1213733296   47  y  -6.3552925775   48  z   3.0767235753


   Interatomic separations (in Angstrom):
   --------------------------------------

            N           H           H           H           O           O     
            ------      ------      ------      ------      ------      ------
 N     :    0.000000
 H     :    0.995498    0.000000
 H     :    0.989578    1.581084    0.000000
 H     :    1.026780    1.642591    1.601946    0.000000
 O     :    3.100723    2.284930    3.594906    3.082155    0.000000
 O     :    2.865887    3.460305    3.123738    3.490568    5.627356    0.000000
 O     :    3.604203    4.194377    3.827323    2.613649    4.793110    5.422549
 O     :    3.131827    3.615832    2.213921    3.716534    5.552488    3.771717
 H     :    3.039413    2.454747    3.683245    2.735782    1.003577    5.535122
 H     :    3.828748    2.947456    4.398754    3.884954    0.965094    6.095205
 H     :    3.481872    4.137507    3.849330    3.893787    6.187680    0.993943
 H     :    1.868848    2.522758    2.261838    2.484564    4.687409    1.020717
 H     :    3.732255    4.435722    3.712112    2.864374    5.302704    5.405544
 H     :    3.910993    4.314894    4.083452    2.922437    4.481776    6.108970
 H     :    3.079621    3.502465    2.342191    3.856016    5.590900    3.151162
 H     :    3.737007    4.370640    2.852360    4.166784    6.326831    4.060515

            O           O           H           H           H           H     
            ------      ------      ------      ------      ------      ------
 O     :    0.000000
 O     :    5.376052    0.000000
 H     :    4.099780    5.806729    0.000000
 H     :    5.600318    6.329634    1.534852    0.000000
 H     :    5.467299    4.578791    5.954595    6.630376    0.000000
 H     :    4.579765    3.425860    4.565787    5.219253    1.662352    0.000000
 H     :    0.983280    4.892292    4.741030    6.177046    5.496471    4.626144
 H     :    1.004867    5.670274    3.817314    5.300703    6.256945    5.194375
 H     :    5.815950    0.971875    5.877835    6.270385    4.035862    2.973525
 H     :    5.432676    0.969538    6.483950    7.142452    4.733899    3.826581

            H           H           H           H     
            ------      ------      ------      ------
 H     :    0.000000
 H     :    1.541738    0.000000
 H     :    5.437672    6.181998    0.000000
 H     :    4.810344    5.805794    1.633401    0.000000


  Max    interatomic separation is    7.1425 Angstrom (   13.4973 Bohr)
  between atoms   16 and   10, "H     " and "H     ".

  Min HX interatomic separation is    0.9651 Angstrom (    1.8238 Bohr)

  Min YX interatomic separation is    2.8659 Angstrom (    5.4157 Bohr)


  Bond distances (Angstrom):
  --------------------------

                  atom 1     atom 2       distance
                  ------     ------       --------
  bond distance:  H          N            0.995498
  bond distance:  H          N            0.989578
  bond distance:  H          N            1.026780
  bond distance:  H          O            1.003577
  bond distance:  H          O            0.965094
  bond distance:  H          O            0.993943
  bond distance:  H          O            1.020717
  bond distance:  H          O            0.983280
  bond distance:  H          O            1.004867
  bond distance:  H          O            0.971875
  bond distance:  H          O            0.969538


  Bond angles (degrees):
  ----------------------

                  atom 1     atom 2     atom 3         angle
                  ------     ------     ------         -----
  bond angle:     H          N          H            105.591
  bond angle:     H          N          H            108.622
  bond angle:     H          N          H            105.197
  bond angle:     H          O          H            102.437
  bond angle:     H          O          H            111.196
  bond angle:     H          O          H            101.689
  bond angle:     H          O          H            114.565




 Principal moments of inertia (u*A**2) and principal axes
 --------------------------------------------------------

   IA     344.074049          0.698572    0.595305   -0.397000
   IB     515.244642         -0.219667    0.706456    0.672805
   IC     597.710261          0.680987   -0.382795    0.624279


 Rotational constants
 --------------------

               A                   B                   C

           1468.8088            980.8525            845.5251 MHz
            0.048994            0.032718            0.028204 cm-1


@  Nuclear repulsion energy :  178.059111502636 Hartree


                     .---------------------------------------.
                     | Starting in Integral Section (HERMIT) |
                     `---------------------------------------'



 ***************************************************************************************
 ****************** Output from **INTEGRALS input processing (HERMIT) ******************
 ***************************************************************************************



    *************************************************************************
    ****************** Output from HERMIT input processing ******************
    *************************************************************************


 Default print level:        1

 * Nuclear model: Point charge

 Calculation of one- and two-electron Hamiltonian integrals.

 The following one-electron property integrals are calculated as requested:
          - overlap integrals
          - dipole length integrals

 Center of mass  (bohr):      0.400798353151     -0.671518531960     -0.283566883528
 Operator center (bohr):      0.000000000000      0.000000000000      0.000000000000
 Gauge origin    (bohr):      0.000000000000      0.000000000000      0.000000000000
 Dipole origin   (bohr):      0.000000000000      0.000000000000      0.000000000000
 
  *********************************** 
  QMMM electrostatic potential: 
  Multipole order                                    0
  Isotropic polarization  
  *********************************** 
 
  ---------------- 
  QMMM information 
  ---------------- 
 
  MM coordinates in au 
  -------------------- 
     1      8.637910      4.952241     -7.166068
     2      8.985491      4.085803     -8.756057
     3      7.213661      6.177656     -7.583456
     4     11.704457     11.099085      5.912312
     5     13.178852      9.935919      5.644576
     6     11.972003     12.007273      7.510720
     7     -5.985152     -9.199790     11.620192
     8     -6.512986     -8.923457     13.480713
     9     -7.311076     -8.348149     10.637006
    10      9.634589      2.982528     11.363643
    11     11.260475      3.699931     10.587582
    12      9.319417      1.115628     10.463569
    13     -7.234544     -5.981114      7.100916
    14     -8.899913     -5.558565      6.446517
    15     -6.430615     -4.397470      6.739500
    16     -2.366047     -8.040070     -4.743596
    17     -2.428510     -6.079423     -4.871427
    18     -2.695662     -8.467872     -3.028430
    19      7.601021      1.153661     -3.430639
    20      6.998727      1.349319     -1.625002
    21      7.488816      2.783929     -4.341103
    22     -3.203651      6.767330     -6.989294
    23     -4.787889      7.374686     -6.161624
    24     -2.799918      8.088500     -8.283494
    25      7.897823     11.693669     -9.828741
    26      7.706598     12.790090     -8.340546
    27      6.610974     12.218043    -11.084037
    28    -10.581983      0.878587     -4.415984
    29    -12.374737      1.011327     -4.660962
    30     -9.905515     -0.501284     -5.472316
    31     -7.325750     -7.986207     -6.501402
    32     -5.620849     -8.429885     -5.772450
    33     -8.480970     -7.838376     -5.012236
    34     -6.208971    -10.381511     -0.295833
    35     -4.799914    -11.097679      0.694112
    36     -7.599613    -10.700810      0.841261
    37     -4.610533     -2.380375    -10.605604
    38     -4.191804     -0.660172    -10.980346
    39     -3.382504     -3.394829    -11.440336
    40     10.834420     -2.856812      0.328888
    41     10.827579     -1.200949     -0.487780
    42      8.945824     -2.994112      0.292709
    43    -11.534030      3.507861      2.896317
    44    -12.053297      5.254818      3.182626
    45    -10.356259      3.858509      1.442031
    46      4.354018      1.154243      6.366913
    47      5.326579      1.524266      4.833623
    48      5.477005      0.399588      7.537972
    49     -2.303172     -2.907786     -5.664945
    50     -0.757389     -2.047872     -5.975151
    51     -3.319606     -2.327956     -7.057966
    52     -7.033878      5.783885     10.138024
    53     -5.423168      5.004171     10.831343
    54     -7.796112      6.426713     11.676117
    55     -8.681300      1.838630      6.883341
    56     -9.815328      2.659338      5.497635
    57     -8.102677      2.978562      8.247192
    58     11.532562     -9.930263     10.410424
    59     11.404019     -8.296948     11.135224
    60     10.609232    -11.073013     11.595630
    61     -2.791471     10.084302    -11.063530
    62     -2.474765      9.001599    -12.528225
    63     -4.263944     11.124115    -11.698282
    64      6.263703      6.036428      8.499157
    65      5.034673      4.761904      8.899831
    66      7.821442      5.452769      9.366252
    67      2.465448      4.572497    -11.668481
    68      2.859286      5.644336    -10.187168
    69      1.949098      3.002374    -10.838290
    70      7.853488     -8.139120     -6.093499
    71      6.638343     -7.970678     -4.751474
    72      9.429601     -7.451290     -5.323158
    73      3.703053     -9.974728     11.626003
    74      2.642848    -10.242949     13.130539
    75      2.685155    -10.858347     10.364776
    76     -3.297608      2.664263    -11.714163
    77     -2.048038      3.021547    -10.391923
    78     -2.274569      2.064851    -13.184802
    79     -4.893999     -1.365928      5.009575
    80     -5.931788      0.018975      5.589370
    81     -5.539044     -1.629724      3.375221
    82      4.373767    -10.647768      3.320003
    83      5.727233     -9.591428      4.315566
    84      5.123229    -11.396929      1.829153
    85      4.668391      8.104304     -8.212519
    86      3.225084      9.192248     -7.815321
    87      5.951437      9.277711     -8.885307
    88      7.079218     -7.600085      6.785755
    89      8.448314     -8.492705      7.700613
    90      5.655841     -7.312131      8.015370
    91      1.595447     -0.430553     -9.627627
    92      1.743541     -1.830967    -10.841831
    93      2.639229     -0.934267     -8.101108
    94     11.152854      8.835483     -2.715967
    95     12.206678      9.317302     -4.242532
    96     12.128153      7.252446     -2.258741
    97      7.062052      1.908022      1.706277
    98      6.236270      3.609536      1.270659
    99      8.752569      2.422882      2.097929
   100      3.752873     -6.757670     -2.487012
   101      1.979097     -7.467918     -2.320433
   102      4.307880     -6.093671     -0.814910
   103      0.649365    -11.423897     -8.053168
   104     -0.543020    -12.010219     -9.366760
   105      0.061582     -9.829142     -7.285835
   106     -1.197850     -6.559045      9.919333
   107     -1.939290     -6.362311      8.162058
   108     -2.125900     -8.034862     10.549494
   109     -8.774533     -3.070357     -7.571673
   110     -7.542728     -2.449438     -8.887548
   111     -7.782860     -4.561474     -6.913032
   112     -0.154084     -9.946959      1.361939
   113      1.467678    -10.138415      2.234722
   114     -0.502722    -11.344126      0.048721
   115      3.848877     -4.880193     10.752663
   116      2.222197     -5.008723      9.965295
   117      3.734137     -6.308038     11.853757
   118     -7.626322      9.894035     -4.701395
   119     -8.236258     11.361032     -5.775921
   120     -7.304956     10.688068     -3.086125
   121     -8.924262      4.864233     -1.243691
   122     -9.128229      3.579366     -2.654470
   123     -7.085141      5.349762     -1.071469
   124      6.055886      9.438112     -0.449955
   125      7.446453      9.798389     -1.737979
   126      7.034717      8.898543      1.076985
   127     -1.697484      9.343662     -1.868319
   128     -2.072415      7.500880     -1.430589
   129     -1.967564      9.634742     -3.733936
   130      1.823990      5.532408     -4.376689
   131      0.501121      5.028969     -5.590766
   132      1.098549      7.066567     -3.750324
   133     -3.840182      4.755785     -0.338006
   134     -3.578196      2.853556     -0.629834
   135     -3.938306      4.836654      1.687958
   136     -0.740914      0.369670      8.023923
   137     -1.708562      0.102463      6.378825
   138      0.957630      0.461002      7.353136
   139      8.473320      7.753641      3.982806
   140      9.243998      9.178398      5.092727
   141      7.436087      6.817816      5.279186
   142     -4.312956      5.630271      4.462800
   143     -3.065000      5.859215      5.783441
   144     -5.530121      6.958535      4.596885
   145    -11.169648     -2.963897      5.557044
   146    -10.253212     -1.454660      5.730258
   147    -11.776652     -2.763328      3.814932
   148      5.644368     -4.641462      1.753088
   149      4.849840     -3.199835      2.574391
   150      6.350451     -5.665977      3.135039
   151    -10.063829      6.364312     -8.572680
   152     -9.025016      6.453604     -7.046233
   153    -11.905137      6.089336     -8.077691
   154     11.496270    -10.364454      0.859797
   155     11.742229    -11.001829      2.624956
   156     11.391936    -11.923127     -0.365694
   157      9.918069     -5.027836    -10.842154
   158     11.585365     -4.813707    -10.124323
   159      8.896594     -6.021763     -9.630158
   160      8.588176     -1.305347      9.306979
   161      9.862040     -1.476749      7.878935
   162      8.601788     -2.969107     10.182262
   163     -4.094152    -10.130136      5.229957
   164     -5.111244     -8.549327      5.483736
   165     -2.730392     -9.682832      4.067191
   166     -7.168973      9.635802      5.741850
   167     -6.780199      8.686394      7.377296
   168     -5.884016     10.991898      5.331857
   169     -1.083968      7.115365      8.349609
   170      0.435283      8.106678      7.750137
   171     -0.401854      5.990377      9.621799
   172      2.528722     10.228216      7.504692
   173      3.022521     11.009027      5.788732
   174      4.017620      9.113790      7.832996
   175    -11.342444     -6.723447     -3.201034
   176    -11.424058     -7.749272     -1.613926
   177    -11.813863     -4.962682     -2.655330
 
  MM charges 
  ---------- 
     1     -0.674440
     2      0.337220
     3      0.337220
     4     -0.674440
     5      0.337220
     6      0.337220
     7     -0.674440
     8      0.337220
     9      0.337220
    10     -0.674440
    11      0.337220
    12      0.337220
    13     -0.674440
    14      0.337220
    15      0.337220
    16     -0.674440
    17      0.337220
    18      0.337220
    19     -0.674440
    20      0.337220
    21      0.337220
    22     -0.674440
    23      0.337220
    24      0.337220
    25     -0.674440
    26      0.337220
    27      0.337220
    28     -0.674440
    29      0.337220
    30      0.337220
    31     -0.674440
    32      0.337220
    33      0.337220
    34     -0.674440
    35      0.337220
    36      0.337220
    37     -0.674440
    38      0.337220
    39      0.337220
    40     -0.674440
    41      0.337220
    42      0.337220
    43     -0.674440
    44      0.337220
    45      0.337220
    46     -0.674440
    47      0.337220
    48      0.337220
    49     -0.674440
    50      0.337220
    51      0.337220
    52     -0.674440
    53      0.337220
    54      0.337220
    55     -0.674440
    56      0.337220
    57      0.337220
    58     -0.674440
    59      0.337220
    60      0.337220
    61     -0.674440
    62      0.337220
    63      0.337220
    64     -0.674440
    65      0.337220
    66      0.337220
    67     -0.674440
    68      0.337220
    69      0.337220
    70     -0.674440
    71      0.337220
    72      0.337220
    73     -0.674440
    74      0.337220
    75      0.337220
    76     -0.674440
    77      0.337220
    78      0.337220
    79     -0.674440
    80      0.337220
    81      0.337220
    82     -0.674440
    83      0.337220
    84      0.337220
    85     -0.674440
    86      0.337220
    87      0.337220
    88     -0.674440
    89      0.337220
    90      0.337220
    91     -0.674440
    92      0.337220
    93      0.337220
    94     -0.674440
    95      0.337220
    96      0.337220
    97     -0.674440
    98      0.337220
    99      0.337220
   100     -0.674440
   101      0.337220
   102      0.337220
   103     -0.674440
   104      0.337220
   105      0.337220
   106     -0.674440
   107      0.337220
   108      0.337220
   109     -0.674440
   110      0.337220
   111      0.337220
   112     -0.674440
   113      0.337220
   114      0.337220
   115     -0.674440
   116      0.337220
   117      0.337220
   118     -0.674440
   119      0.337220
   120      0.337220
   121     -0.674440
   122      0.337220
   123      0.337220
   124     -0.674440
   125      0.337220
   126      0.337220
   127     -0.674440
   128      0.337220
   129      0.337220
   130     -0.674440
   131      0.337220
   132      0.337220
   133     -0.674440
   134      0.337220
   135      0.337220
   136     -0.674440
   137      0.337220
   138      0.337220
   139     -0.674440
   140      0.337220
   141      0.337220
   142     -0.674440
   143      0.337220
   144      0.337220
   145     -0.674440
   146      0.337220
   147      0.337220
   148     -0.674440
   149      0.337220
   150      0.337220
   151     -0.674440
   152      0.337220
   153      0.337220
   154     -0.674440
   155      0.337220
   156      0.337220
   157     -0.674440
   158      0.337220
   159      0.337220
   160     -0.674440
   161      0.337220
   162      0.337220
   163     -0.674440
   164      0.337220
   165      0.337220
   166     -0.674440
   167      0.337220
   168      0.337220
   169     -0.674440
   170      0.337220
   171      0.337220
   172     -0.674440
   173      0.337220
   174      0.337220
   175     -0.674440
   176      0.337220
   177      0.337220
 
  MM isotropic polarizabilities in au 
  ----------------------------------- 
     1      5.739350
     2      2.308390
     3      2.308390
     4      5.739350
     5      2.308390
     6      2.308390
     7      5.739350
     8      2.308390
     9      2.308390
    10      5.739350
    11      2.308390
    12      2.308390
    13      5.739350
    14      2.308390
    15      2.308390
    16      5.739350
    17      2.308390
    18      2.308390
    19      5.739350
    20      2.308390
    21      2.308390
    22      5.739350
    23      2.308390
    24      2.308390
    25      5.739350
    26      2.308390
    27      2.308390
    28      5.739350
    29      2.308390
    30      2.308390
    31      5.739350
    32      2.308390
    33      2.308390
    34      5.739350
    35      2.308390
    36      2.308390
    37      5.739350
    38      2.308390
    39      2.308390
    40      5.739350
    41      2.308390
    42      2.308390
    43      5.739350
    44      2.308390
    45      2.308390
    46      5.739350
    47      2.308390
    48      2.308390
    49      5.739350
    50      2.308390
    51      2.308390
    52      5.739350
    53      2.308390
    54      2.308390
    55      5.739350
    56      2.308390
    57      2.308390
    58      5.739350
    59      2.308390
    60      2.308390
    61      5.739350
    62      2.308390
    63      2.308390
    64      5.739350
    65      2.308390
    66      2.308390
    67      5.739350
    68      2.308390
    69      2.308390
    70      5.739350
    71      2.308390
    72      2.308390
    73      5.739350
    74      2.308390
    75      2.308390
    76      5.739350
    77      2.308390
    78      2.308390
    79      5.739350
    80      2.308390
    81      2.308390
    82      5.739350
    83      2.308390
    84      2.308390
    85      5.739350
    86      2.308390
    87      2.308390
    88      5.739350
    89      2.308390
    90      2.308390
    91      5.739350
    92      2.308390
    93      2.308390
    94      5.739350
    95      2.308390
    96      2.308390
    97      5.739350
    98      2.308390
    99      2.308390
   100      5.739350
   101      2.308390
   102      2.308390
   103      5.739350
   104      2.308390
   105      2.308390
   106      5.739350
   107      2.308390
   108      2.308390
   109      5.739350
   110      2.308390
   111      2.308390
   112      5.739350
   113      2.308390
   114      2.308390
   115      5.739350
   116      2.308390
   117      2.308390
   118      5.739350
   119      2.308390
   120      2.308390
   121      5.739350
   122      2.308390
   123      2.308390
   124      5.739350
   125      2.308390
   126      2.308390
   127      5.739350
   128      2.308390
   129      2.308390
   130      5.739350
   131      2.308390
   132      2.308390
   133      5.739350
   134      2.308390
   135      2.308390
   136      5.739350
   137      2.308390
   138      2.308390
   139      5.739350
   140      2.308390
   141      2.308390
   142      5.739350
   143      2.308390
   144      2.308390
   145      5.739350
   146      2.308390
   147      2.308390
   148      5.739350
   149      2.308390
   150      2.308390
   151      5.739350
   152      2.308390
   153      2.308390
   154      5.739350
   155      2.308390
   156      2.308390
   157      5.739350
   158      2.308390
   159      2.308390
   160      5.739350
   161      2.308390
   162      2.308390
   163      5.739350
   164      2.308390
   165      2.308390
   166      5.739350
   167      2.308390
   168      2.308390
   169      5.739350
   170      2.308390
   171      2.308390
   172      5.739350
   173      2.308390
   174      2.308390
   175      5.739350
   176      2.308390
   177      2.308390


     ************************************************************************
     ************************** Output from HERINT **************************
     ************************************************************************



                      Nuclear contribution to dipole moments
                      --------------------------------------

                 au               Debye          C m (/(10**-30)

      x     21.02027973        53.42821840       178.21735329
      y    -33.14036327       -84.23439598      -280.97570079
      z    -14.96582022       -38.03931828      -126.88550784


  Time used in HUCKEL     is       0.35 seconds
  Time used in OVERLAP    is       0.19 seconds
  Time used in POPOVLP    is       0.19 seconds
  Time used in DIPLEN     is       0.28 seconds
  Time used in QUADRUP    is       0.90 seconds
  Time used in KINENE     is       0.37 seconds

 Threshold for neglecting two-electron integrals:  1.00D-12
 HERMIT - Number of two-electron integrals written:    26470668 ( 35.3% )
 HERMIT - Megabytes written:                            303.103

  Time used in TWOINT     is      14.16 seconds
  Total CPU  time used in HERMIT:  16.50 seconds
  Total wall time used in HERMIT:   5.75 seconds


                        .----------------------------------.
                        | End of Integral Section (HERMIT) |
                        `----------------------------------'



                   .--------------------------------------------.
                   | Starting in Wave Function Section (SIRIUS) |
                   `--------------------------------------------'

NCCEXCI for singlet:   15
 CCSD_INPUT: core-val requested
 Requested number of core orbs per sym
                     1
 Indices of requested core orbs
                     1

 *** Output from Huckel module :

     Using EWMO model:          T
     Using EHT  model:          F
     Number of Huckel orbitals each symmetry:   36

 EWMO - Energy Weighted Maximum Overlap - is a Huckel type method,
        which normally is better than Extended Huckel Theory.
 Reference: Linderberg and Ohrn, Propagators in Quantum Chemistry (Wiley, 1973)

 Huckel EWMO eigenvalues for symmetry :  1
          -20.684793     -20.684584     -20.684422     -20.684229     -15.674370
           -1.705182      -1.608014      -1.590618      -1.577078      -1.473781
           -0.828312      -0.793941      -0.779360      -0.768345      -0.738197
           -0.715866      -0.693507      -0.687026      -0.685905      -0.669508
           -0.618013      -0.612336      -0.600423      -0.585298      -0.517471
           -0.254043      -0.242665      -0.238134      -0.229875      -0.180960
           -0.179787      -0.176512      -0.169449      -0.159417      -0.144618
           -0.139761

 **********************************************************************
 *SIRIUS* a direct, restricted step, second order MCSCF program       *
 **********************************************************************

 
     Date and time (Linux)  : Fri Dec 28 11:44:15 2018
     Host name              : n-62-29-5                               

 Title lines from ".mol" input file:
                                                                             
                                                                             

 Print level on unit LUPRI =   2 is   0
 Print level on unit LUW4  =   2 is  11

@    (Integral direct) CC calculation.

@    This is a combination run starting with
@              a restricted, closed shell Hartree-Fock calculation


 Initial molecular orbitals are obtained according to
 ".MOSTART EWMO  " input option

@    QM part is embedded in an environment :

@         Model: QMMM

     Wave function specification
     ============================

     For the specification of the Coupled Cluster: see later.

@    Wave function type        --- CC ---
@    Number of closed shell electrons          50
@    Number of electrons in active shells       0
@    Total charge of the molecule               0

@    Spin multiplicity and 2 M_S                1         0
@    Total number of symmetries                 1 (point group: C1 )
@    Reference state symmetry                   1 (irrep name : A  )

     Orbital specifications
     ======================
@    Abelian symmetry species          All |    1
@                                          |  A  
                                       --- |  ---
@    Occupied SCF orbitals              25 |   25
@    Secondary orbitals                131 |  131
@    Total number of orbitals          156 |  156
@    Number of basis functions         156 |  156

     Optimization information
     ========================
@    Number of configurations                 1
@    Number of orbital rotations           3275
     ------------------------------------------
@    Total number of variables             3276

     Maximum number of Fock   iterations      0
     Maximum number of DIIS   iterations     60
     Maximum number of QC-SCF iterations     60
     Threshold for SCF convergence     1.00D-07


 Changes of defaults for CC:
 ---------------------------


 -Implicit frozen core calculation
 -Excitation energies calculated
 -One-photon absorption strengths will be calculated
 -Oscillator strengths calculated
  
* Read MO coefficients from SIRIUS.RST with label "NEWORB  " and header info: 28Dec18  REORTHO 


 ***********************************************
 ***** DIIS acceleration of SCF iterations *****
 ***********************************************

 C1-DIIS algorithm; max error vectors =    8
 -----------------------------------------------------------------------------

 *** DIIS iteration number    1
 RDSUPM called. NFMAT, ISYMDM(1:NFMAT)                     1
                     1

Calculating AOSUPINT
     (Precalculated two-electron integrals are transformed to P-supermatrix elements.
      Threshold for discarding integrals :  1.00D-12 )
  CPU  time used in FORMSUP    is   6.27 seconds
  WALL time used in FORMSUP    is   6.70 seconds

 ITDIIS, energy, error norm, change in energy, scr.thr., difden:
@ DIIS iter.   1    -359.860938210        3.80122D+00   -3.60D+02  -20    F

 (DIIS_RED) Control Parameters C2DIIS =         F NEVC =    1


 (DIIS_RED) B matrix:

               Column   1
       1      14.44928696
    ==== End of matrix output ====

 DIIS C vector; C2DIIS = F, LAMBDA = -1.44D+01
    1.000000
* Read MO coefficients from SIRIUS.RST with label "NEWORB  " and header info: 28Dec18  DIIS   1
      Virial theorem: -V/T =      1.998244
@      MULPOP N      -0.40; H       0.16; H       0.17; H       0.15; O      -0.64; O      -0.80; O      -0.65; O      -0.63; H       0.33; H       0.32; 
@             H       0.32; H       0.31; H       0.34; H       0.34; H       0.33; H       0.32; 
   1  Level shift: doubly occupied orbital energies shifted by -2.00D-01

 DIIS Fock eigenvalues in symmetry 1
      -20.71242      -20.70004      -20.69438      -20.53219      -15.95955
       -1.53209       -1.53111       -1.52511       -1.43888       -1.42816
       -0.94024       -0.93167       -0.92133       -0.90654       -0.90239
       -0.85791       -0.79446       -0.77824       -0.75544       -0.74300
       -0.73608       -0.72782       -0.72154       -0.67351       -0.63411
        0.12340        0.16600        0.17939        0.20386        0.23212
        0.24431        0.26380        0.29218        0.30546        0.31305
        0.34827        0.44847        0.46659        0.51520        0.54881
        0.56179        0.57448        0.58098        0.60003        0.60555
        0.62243        0.65802        0.84087        0.89718        0.91313
        0.94820        0.97063        1.00086        1.02624        1.04398
        1.06001        1.08606        1.10270        1.10805        1.12693
        1.14265        1.16992        1.24356        1.24842        1.29111
        1.35123        1.37391        1.38906        1.44695        1.45422
        1.46523        1.48813        1.49548        1.51461        1.53782
        1.61856        1.64934        1.66100        1.68692        1.71346
        1.74288        1.75617        1.81714        1.82364        1.88032
        1.88532        1.89351        1.94495        1.99698        2.11847
        2.14822        2.17068        2.20119        2.26969        2.28266
        2.30969        2.32618        2.33515        2.43355        2.52927
        2.59044        2.59471        2.63363        2.66064        2.66932
        2.68729        2.73117        2.76601        2.79056        2.80265
        2.82813        2.89876        2.93063        3.10390        3.34632
        3.37690        3.42772        3.44383        3.45621        3.47769
        3.49527        3.49985        3.55476        3.60033        3.62101
        3.63501        3.66129        3.68641        3.94862        3.96482
        4.07849        4.10329        4.17595        4.20063        4.23198
        4.24882        4.44986        5.06383        5.12203        5.36811
        5.38139        5.40017        5.45230        5.74001        5.75468
        5.76943        5.78330        6.04567        6.08980        6.20870
        6.23204       36.84617       51.54649       51.57013       51.59664
       51.75045
 Time used in FCKEIG, thr_jaco:   4.31D-01  4.30D-02  1.66D-04
 CPU and wall times used in FCKEIG, THR_FCKEIG:   4.32D-01  4.30D-02  3.80D-02
 -----------------------------------------------------------------------------

 *** DIIS iteration number    2
 RDSUPM called. NFMAT, ISYMDM(1:NFMAT)                     1
                     1

 ITDIIS, energy, error norm, change in energy, scr.thr., difden:
@ DIIS iter.   2    -360.653801992        9.21772D-01   -7.93D-01  -20    F

 (DIIS_RED) Control Parameters C2DIIS =         F NEVC =    2


 (DIIS_RED) B matrix:

               Column   1     Column   2
       1      14.44928696
       2       0.94518437     0.84966382
    ==== End of matrix output ====

 DIIS C vector; C2DIIS = F, LAMBDA = -8.49D-01
   -0.007124    1.007124
* Read MO coefficients from SIRIUS.RST with label "NEWORB  " and header info: 28Dec18  DIIS   2
      Virial theorem: -V/T =      2.003721
@      MULPOP N      -0.67; H       0.23; H       0.22; H       0.22; O      -0.56; O      -0.61; O      -0.60; O      -0.55; H       0.30; H       0.28; 
@             H       0.24; H       0.29; H       0.30; H       0.32; H       0.29; H       0.28; 
   2  Level shift: doubly occupied orbital energies shifted by -5.00D-02

 DIIS Fock eigenvalues in symmetry 1
      -20.64138      -20.61161      -20.61029      -20.59928      -15.45918
       -1.37250       -1.36904       -1.36893       -1.34860       -1.14843
       -0.75704       -0.73229       -0.72727       -0.72177       -0.65144
       -0.64212       -0.63564       -0.62433       -0.60385       -0.60073
       -0.56108       -0.55783       -0.54669       -0.54216       -0.44937
        0.16440        0.19397        0.20892        0.21676        0.26380
        0.26862        0.28338        0.32030        0.34220        0.34607
        0.38564        0.51581        0.52762        0.55361        0.58262
        0.59195        0.60988        0.61901        0.62582        0.64096
        0.66613        0.72348        0.94057        0.95795        0.97364
        0.98221        0.98976        1.01379        1.04098        1.05423
        1.08318        1.11160        1.11832        1.12651        1.13508
        1.16618        1.18988        1.28709        1.34954        1.36588
        1.38707        1.40957        1.44717        1.49403        1.49487
        1.51173        1.54331        1.55324        1.56130        1.56370
        1.65805        1.67787        1.71393        1.74379        1.76504
        1.79149        1.83211        1.88093        1.89352        1.94567
        1.95271        1.96407        2.01114        2.07585        2.21498
        2.23954        2.25309        2.26823        2.30227        2.31898
        2.36768        2.39229        2.40045        2.50329        2.61229
        2.65551        2.66442        2.69735        2.72462        2.74402
        2.75525        2.79158        2.83254        2.84694        2.86000
        2.95555        3.05655        3.07594        3.24154        3.42885
        3.43410        3.47103        3.47263        3.50461        3.51993
        3.52364        3.53870        3.57580        3.59265        3.63653
        3.64675        3.66644        3.68657        3.97464        3.98579
        4.05811        4.10281        4.17968        4.20961        4.22649
        4.25517        4.64534        5.26943        5.31436        5.33600
        5.37116        5.39858        5.40859        5.64835        5.74149
        5.75684        5.78008        6.06683        6.10408        6.13242
        6.22613       37.19048       51.49588       51.50187       51.51157
       51.54445
 Time used in FCKEIG, thr_jaco:   3.18D-01  3.20D-02  4.03D-05
 CPU and wall times used in FCKEIG, THR_FCKEIG:   3.18D-01  3.20D-02  9.22D-03
 -----------------------------------------------------------------------------

 *** DIIS iteration number    3
 RDSUPM called. NFMAT, ISYMDM(1:NFMAT)                     1
                     1

 ITDIIS, energy, error norm, change in energy, scr.thr., difden:
@ DIIS iter.   3    -360.712400570        3.35512D-01   -5.86D-02  -20    F

 (DIIS_RED) Control Parameters C2DIIS =         F NEVC =    3


 (DIIS_RED) B matrix:

               Column   1     Column   2     Column   3
       1      14.44928696
       2       0.94518437     0.84966382
       3       0.60262359     0.05584886     0.11256824
    ==== End of matrix output ====

 DIIS C vector; C2DIIS = F, LAMBDA = -8.85D-02
   -0.039234    0.085105    0.954129
* Read MO coefficients from SIRIUS.RST with label "NEWORB  " and header info: 28Dec18  DIIS   3
      Virial theorem: -V/T =      2.001563
@      MULPOP N      -0.60; H       0.21; H       0.20; H       0.20; O      -0.61; O      -0.68; O      -0.66; O      -0.58; H       0.33; H       0.30; 
@             H       0.29; H       0.32; H       0.33; H       0.35; H       0.31; H       0.30; 
   3  Level shift: doubly occupied orbital energies shifted by -2.50D-02

 DIIS Fock eigenvalues in symmetry 1
      -20.55366      -20.54645      -20.53925      -20.48374      -15.56467
       -1.33266       -1.33222       -1.33016       -1.27971       -1.15824
       -0.71770       -0.69177       -0.68386       -0.66917       -0.64628
       -0.63705       -0.59650       -0.58275       -0.55817       -0.53707
       -0.51435       -0.51166       -0.50129       -0.46498       -0.44594
        0.16800        0.19824        0.21249        0.22271        0.26691
        0.27056        0.28699        0.32310        0.34419        0.34750
        0.38870        0.51519        0.52762        0.56273        0.59372
        0.60093        0.61960        0.62662        0.63691        0.64810
        0.67187        0.72509        0.93557        0.96250        0.97935
        0.98863        1.00343        1.03276        1.05414        1.06555
        1.09404        1.12573        1.12894        1.13900        1.14560
        1.17787        1.20156        1.28966        1.35597        1.36089
        1.39646        1.41754        1.44849        1.50523        1.50869
        1.52027        1.55515        1.56220        1.57276        1.57813
        1.67114        1.69489        1.72157        1.75185        1.77602
        1.80234        1.83704        1.88705        1.89871        1.95282
        1.95943        1.96879        2.01567        2.07981        2.22026
        2.23210        2.25857        2.26529        2.32396        2.33256
        2.38212        2.40432        2.41290        2.51736        2.61901
        2.66467        2.67170        2.70734        2.73350        2.74984
        2.76290        2.80036        2.83982        2.85839        2.86766
        2.94469        3.02931        3.05399        3.22190        3.45227
        3.47558        3.48795        3.49421        3.49811        3.52382
        3.54367        3.54660        3.59873        3.60176        3.66652
        3.68570        3.68634        3.70918        3.99296        4.00730
        4.10670        4.12432        4.21726        4.24659        4.24910
        4.27901        4.58747        5.22660        5.28718        5.38954
        5.40390        5.41455        5.43171        5.72511        5.76586
        5.78019        5.80709        6.08964        6.13179        6.20783
        6.25225       37.06414       51.53304       51.55168       51.57944
       51.62813
 Time used in FCKEIG, thr_jaco:   3.18D-01  3.20D-02  1.47D-05
 CPU and wall times used in FCKEIG, THR_FCKEIG:   3.18D-01  3.20D-02  3.36D-03
 -----------------------------------------------------------------------------

 *** DIIS iteration number    4
 RDSUPM called. NFMAT, ISYMDM(1:NFMAT)                     1
                     1

 ITDIIS, energy, error norm, change in energy, scr.thr., difden:
@ DIIS iter.   4    -360.720021603        1.16611D-01   -7.62D-03  -20    F

 (DIIS_RED) Control Parameters C2DIIS =         F NEVC =    4


 (DIIS_RED) B matrix:

               Column   1     Column   2     Column   3     Column   4
       1      14.44928696
       2       0.94518437     0.84966382
       3       0.60262359     0.05584886     0.11256824
       4      -0.00682116     0.07930570    -0.01005417     0.01359809
    ==== End of matrix output ====

 DIIS C vector; C2DIIS = F, LAMBDA = -3.64D-03
    0.000062   -0.093371    0.161555    0.931754
* Read MO coefficients from SIRIUS.RST with label "NEWORB  " and header info: 28Dec18  DIIS   4
      Virial theorem: -V/T =      2.002449
@      MULPOP N      -0.67; H       0.23; H       0.22; H       0.22; O      -0.62; O      -0.66; O      -0.67; O      -0.59; H       0.33; H       0.30; 
@             H       0.28; H       0.32; H       0.33; H       0.36; H       0.31; H       0.30; 
   4  Level shift: doubly occupied orbital energies shifted by -1.25D-02

 DIIS Fock eigenvalues in symmetry 1
      -20.55044      -20.54595      -20.53600      -20.51141      -15.51875
       -1.32520       -1.32395       -1.32144       -1.28007       -1.13499
       -0.70813       -0.68281       -0.67481       -0.66452       -0.62485
       -0.61533       -0.58622       -0.57316       -0.54654       -0.53276
       -0.50245       -0.50002       -0.48874       -0.46266       -0.42266
        0.16801        0.19722        0.21125        0.22113        0.26635
        0.27114        0.28692        0.32322        0.34614        0.34866
        0.39067        0.51938        0.53142        0.56184        0.59336
        0.59957        0.61902        0.62684        0.63484        0.64647
        0.67001        0.72769        0.94053        0.96521        0.98154
        0.99146        1.00326        1.02988        1.05563        1.06274
        1.09400        1.12406        1.12733        1.13726        1.14442
        1.17646        1.19989        1.29035        1.35691        1.36692
        1.39632        1.41657        1.45182        1.50313        1.50658
        1.51862        1.55345        1.55965        1.57064        1.57610
        1.66977        1.69264        1.72026        1.75010        1.77558
        1.80198        1.83928        1.88791        1.90053        1.95037
        1.95884        1.97038        2.01826        2.08307        2.22086
        2.23672        2.26088        2.26649        2.31876        2.33054
        2.38006        2.40075        2.40937        2.51784        2.62123
        2.66259        2.66992        2.70713        2.73332        2.75267
        2.76440        2.80077        2.83747        2.85820        2.86584
        2.95256        3.04142        3.06447        3.23112        3.45110
        3.46777        3.48611        3.49051        3.50743        3.52112
        3.54009        3.55285        3.59381        3.59737        3.66424
        3.67495        3.68294        3.70559        3.98994        4.00336
        4.09568        4.12157        4.21204        4.23948        4.24386
        4.27515        4.60565        5.24198        5.30247        5.37555
        5.39301        5.41090        5.42659        5.70472        5.76149
        5.77595        5.80146        6.08434        6.12517        6.18768
        6.24746       37.09696       51.52398       51.53999       51.57031
       51.58884
 Time used in FCKEIG, thr_jaco:   2.88D-01  2.80D-02  5.09D-06
 CPU and wall times used in FCKEIG, THR_FCKEIG:   2.88D-01  2.90D-02  1.17D-03
 -----------------------------------------------------------------------------

 *** DIIS iteration number    5
 RDSUPM called. NFMAT, ISYMDM(1:NFMAT)                     1
                     1

 ITDIIS, energy, error norm, change in energy, scr.thr., difden:
@ DIIS iter.   5    -360.721075110        2.30282D-02   -1.05D-03  -20    F

 (DIIS_RED) Control Parameters C2DIIS =         F NEVC =    5


 (DIIS_RED) B matrix:

               Column   1     Column   2     Column   3     Column   4     Column   5
       1      14.44928696
       2       0.94518437     0.84966382
       3       0.60262359     0.05584886     0.11256824
       4      -0.00682116     0.07930570    -0.01005417     0.01359809
       5       0.01305217     0.00608602     0.00456045     0.00063613     0.00053030
    ==== End of matrix output ====

 DIIS C vector; C2DIIS = F, LAMBDA = -3.09D-04
    0.001233    0.004187   -0.061836   -0.100931    1.157347
* Read MO coefficients from SIRIUS.RST with label "NEWORB  " and header info: 28Dec18  DIIS   5
      Virial theorem: -V/T =      2.002053
@      MULPOP N      -0.66; H       0.23; H       0.21; H       0.21; O      -0.63; O      -0.68; O      -0.68; O      -0.60; H       0.34; H       0.31; 
@             H       0.29; H       0.33; H       0.34; H       0.37; H       0.32; H       0.31; 

 DIIS Fock eigenvalues in symmetry 1
      -20.53690      -20.53191      -20.52201      -20.49225      -15.50197
       -1.31228       -1.31115       -1.30848       -1.26506       -1.12130
       -0.69573       -0.67031       -0.66250       -0.65051       -0.61159
       -0.60196       -0.57390       -0.56076       -0.53367       -0.51804
       -0.48871       -0.48629       -0.47497       -0.44700       -0.40832
        0.16797        0.19708        0.21097        0.22125        0.26618
        0.27118        0.28691        0.32313        0.34647        0.34880
        0.39109        0.51971        0.53176        0.56174        0.59359
        0.59957        0.61902        0.62689        0.63529        0.64621
        0.66968        0.72801        0.94125        0.96569        0.98207
        0.99237        1.00393        1.03116        1.05688        1.06388
        1.09477        1.12479        1.12741        1.13748        1.14470
        1.17706        1.20037        1.29087        1.35735        1.36756
        1.39660        1.41667        1.45228        1.50283        1.50693
        1.51841        1.55352        1.55918        1.57042        1.57672
        1.66980        1.69333        1.71992        1.74968        1.77574
        1.80221        1.83939        1.88795        1.90069        1.94964
        1.95837        1.97068        2.01865        2.08340        2.22050
        2.23715        2.26047        2.26688        2.31955        2.33024
        2.37980        2.40030        2.40895        2.51847        2.62164
        2.66204        2.66933        2.70732        2.73328        2.75273
        2.76436        2.80052        2.83663        2.85795        2.86521
        2.95333        3.04246        3.06542        3.23203        3.45171
        3.47031        3.48653        3.49103        3.50874        3.52131
        3.54039        3.55456        3.59544        3.59835        3.66477
        3.67743        3.68309        3.70589        3.99013        4.00365
        4.09820        4.12189        4.21326        4.24134        4.24410
        4.27555        4.60782        5.24380        5.30430        5.37881
        5.39468        5.41182        5.42777        5.70856        5.76209
        5.77655        5.80214        6.08456        6.12563        6.19121
        6.24799       37.10115       51.52501       51.54150       51.57183
       51.59534
 Time used in FCKEIG, thr_jaco:   2.64D-01  2.60D-02  1.01D-06
 CPU and wall times used in FCKEIG, THR_FCKEIG:   2.64D-01  2.60D-02  2.30D-04
 -----------------------------------------------------------------------------

 *** DIIS iteration number    6
 RDSUPM called. NFMAT, ISYMDM(1:NFMAT)                     1
                     1

 ITDIIS, energy, error norm, change in energy, scr.thr., difden:
@ DIIS iter.   6    -360.721152218        7.86425D-03   -7.71D-05  -20    F

 (DIIS_RED) Control Parameters C2DIIS =         F NEVC =    6


 (DIIS_RED) B matrix:

               Column   1     Column   2     Column   3     Column   4     Column   5     Column   6
       1      14.44928696
       2       0.94518437     0.84966382
       3       0.60262359     0.05584886     0.11256824
       4      -0.00682116     0.07930570    -0.01005417     0.01359809
       5       0.01305217     0.00608602     0.00456045     0.00063613     0.00053030
       6      -0.00238035    -0.00023621     0.00055343     0.00019558     0.00006207     0.00006185
    ==== End of matrix output ====

 DIIS C vector; C2DIIS = F, LAMBDA = -3.45D-05
    0.000491    0.008086   -0.025382   -0.084521    0.170934    0.930392
* Read MO coefficients from SIRIUS.RST with label "NEWORB  " and header info: 28Dec18  DIIS   6
      Virial theorem: -V/T =      2.002191
@      MULPOP N      -0.66; H       0.23; H       0.21; H       0.21; O      -0.63; O      -0.68; O      -0.69; O      -0.60; H       0.34; H       0.31; 
@             H       0.29; H       0.33; H       0.34; H       0.37; H       0.32; H       0.31; 

 DIIS Fock eigenvalues in symmetry 1
      -20.53726      -20.53255      -20.52254      -20.49434      -15.50541
       -1.31247       -1.31122       -1.30862       -1.26556       -1.12240
       -0.69601       -0.67060       -0.66271       -0.65104       -0.61257
       -0.60292       -0.57420       -0.56118       -0.53393       -0.51862
       -0.48866       -0.48627       -0.47499       -0.44737       -0.40921
        0.16784        0.19697        0.21085        0.22118        0.26607
        0.27103        0.28680        0.32300        0.34631        0.34862
        0.39085        0.51935        0.53139        0.56158        0.59342
        0.59942        0.61889        0.62671        0.63510        0.64600
        0.66950        0.72769        0.94072        0.96535        0.98174
        0.99194        1.00377        1.03085        1.05648        1.06367
        1.09450        1.12455        1.12724        1.13727        1.14447
        1.17683        1.20014        1.29050        1.35700        1.36697
        1.39642        1.41646        1.45185        1.50260        1.50668
        1.51820        1.55328        1.55894        1.57018        1.57650
        1.66961        1.69311        1.71965        1.74943        1.77553
        1.80200        1.83905        1.88765        1.90037        1.94941
        1.95808        1.97030        2.01832        2.08304        2.22014
        2.23647        2.26013        2.26619        2.31923        2.32999
        2.37958        2.40004        2.40867        2.51807        2.62122
        2.66173        2.66904        2.70711        2.73300        2.75239
        2.76407        2.80027        2.83634        2.85779        2.86496
        2.95254        3.04133        3.06440        3.23112        3.45144
        3.46966        3.48629        3.49073        3.50755        3.52113
        3.54010        3.55350        3.59492        3.59783        3.66455
        3.67685        3.68294        3.70563        3.98996        4.00337
        4.09752        4.12165        4.21288        4.24083        4.24394
        4.27527        4.60597        5.24220        5.30268        5.37796
        5.39415        5.41147        5.42740        5.70750        5.76182
        5.77627        5.80176        6.08431        6.12522        6.19016
        6.24766       37.09779       51.52465       51.54087       51.57130
       51.59330
 Time used in FCKEIG, thr_jaco:   2.61D-01  2.70D-02  3.44D-07
 CPU and wall times used in FCKEIG, THR_FCKEIG:   2.61D-01  2.70D-02  7.86D-05
 -----------------------------------------------------------------------------

 *** DIIS iteration number    7
 RDSUPM called. NFMAT, ISYMDM(1:NFMAT)                     1
                     1

 ITDIIS, energy, error norm, change in energy, scr.thr., difden:
@ DIIS iter.   7    -360.721158863        2.44206D-03   -6.65D-06  -20    F

 (DIIS_RED) Control Parameters C2DIIS =         F NEVC =    7


 (DIIS_RED) B matrix:

               Column   1     Column   2     Column   3     Column   4     Column   5     Column   6
       1      14.44928696
       2       0.94518437     0.84966382
       3       0.60262359     0.05584886     0.11256824
       4      -0.00682116     0.07930570    -0.01005417     0.01359809
       5       0.01305217     0.00608602     0.00456045     0.00063613     0.00053030
       6      -0.00238035    -0.00023621     0.00055343     0.00019558     0.00006207     0.00006185
       7       0.00070612    -0.00000195     0.00008933    -0.00000673     0.00003641     0.00000053

               Column   7
       7       0.00000596
    ==== End of matrix output ====

 DIIS C vector; C2DIIS = F, LAMBDA = -1.19D-06
   -0.000215   -0.001588    0.010273    0.025487   -0.170943   -0.005963    1.142950
* Read MO coefficients from SIRIUS.RST with label "NEWORB  " and header info: 28Dec18  DIIS   7
      Virial theorem: -V/T =      2.002158
@      MULPOP N      -0.66; H       0.23; H       0.21; H       0.21; O      -0.63; O      -0.68; O      -0.69; O      -0.60; H       0.34; H       0.31; 
@             H       0.29; H       0.33; H       0.34; H       0.37; H       0.32; H       0.31; 

 DIIS Fock eigenvalues in symmetry 1
      -20.53725      -20.53247      -20.52246      -20.49364      -15.50481
       -1.31242       -1.31119       -1.30855       -1.26522       -1.12221
       -0.69600       -0.67059       -0.66272       -0.65081       -0.61245
       -0.60280       -0.57428       -0.56125       -0.53394       -0.51838
       -0.48856       -0.48618       -0.47488       -0.44700       -0.40897
        0.16787        0.19699        0.21085        0.22124        0.26608
        0.27105        0.28682        0.32300        0.34635        0.34864
        0.39091        0.51942        0.53147        0.56160        0.59349
        0.59947        0.61893        0.62675        0.63520        0.64600
        0.66949        0.72775        0.94080        0.96539        0.98179
        0.99205        1.00382        1.03100        1.05663        1.06380
        1.09458        1.12466        1.12728        1.13732        1.14451
        1.17691        1.20020        1.29061        1.35708        1.36704
        1.39647        1.41650        1.45192        1.50258        1.50677
        1.51820        1.55333        1.55892        1.57019        1.57664
        1.66966        1.69325        1.71964        1.74941        1.77560
        1.80208        1.83908        1.88770        1.90042        1.94937
        1.95805        1.97036        2.01841        2.08310        2.22014
        2.23654        2.26011        2.26627        2.31938        2.33000
        2.37959        2.40001        2.40864        2.51819        2.62128
        2.66171        2.66902        2.70719        2.73303        2.75240
        2.76408        2.80028        2.83629        2.85785        2.86496
        2.95265        3.04151        3.06456        3.23124        3.45150
        3.46997        3.48633        3.49078        3.50775        3.52115
        3.54013        3.55374        3.59512        3.59797        3.66461
        3.67717        3.68297        3.70567        3.98997        4.00339
        4.09784        4.12170        4.21304        4.24108        4.24397
        4.27531        4.60631        5.24246        5.30295        5.37830
        5.39431        5.41154        5.42749        5.70794        5.76186
        5.77630        5.80181        6.08432        6.12526        6.19059
        6.24772       37.09837       51.52466       51.54094       51.57138
       51.59398
 Time used in FCKEIG, thr_jaco:   2.40D-01  2.40D-02  1.07D-07
 CPU and wall times used in FCKEIG, THR_FCKEIG:   2.40D-01  2.40D-02  2.44D-05
 -----------------------------------------------------------------------------

 *** DIIS iteration number    8
 RDSUPM called. NFMAT, ISYMDM(1:NFMAT)                     1
                     1

 ITDIIS, energy, error norm, change in energy, scr.thr., difden:
@ DIIS iter.   8    -360.721159536        3.43842D-04   -6.73D-07  -20    F

 (DIIS_RED) Control Parameters C2DIIS =         F NEVC =    8


 (DIIS_RED) B matrix:

               Column   1     Column   2     Column   3     Column   4     Column   5     Column   6
       1      14.44928696
       2       0.94518437     0.84966382
       3       0.60262359     0.05584886     0.11256824
       4      -0.00682116     0.07930570    -0.01005417     0.01359809
       5       0.01305217     0.00608602     0.00456045     0.00063613     0.00053030
       6      -0.00238035    -0.00023621     0.00055343     0.00019558     0.00006207     0.00006185
       7       0.00070612    -0.00000195     0.00008933    -0.00000673     0.00003641     0.00000053
       8       0.00004955     0.00000065     0.00000012     0.00000340     0.00000099     0.00000133

               Column   7     Column   8
       7       0.00000596
       8       0.00000031     0.00000012
    ==== End of matrix output ====

 DIIS C vector; C2DIIS = F, LAMBDA = -5.64D-08
    0.000018    0.000119   -0.001234   -0.002876    0.028055   -0.030351   -0.209794    1.216063
* Read MO coefficients from SIRIUS.RST with label "NEWORB  " and header info: 28Dec18  DIIS   8
      Virial theorem: -V/T =      2.002175
@      MULPOP N      -0.66; H       0.23; H       0.21; H       0.21; O      -0.63; O      -0.68; O      -0.69; O      -0.60; H       0.34; H       0.31; 
@             H       0.29; H       0.33; H       0.34; H       0.37; H       0.32; H       0.31; 

 DIIS Fock eigenvalues in symmetry 1
      -20.53723      -20.53246      -20.52243      -20.49368      -15.50484
       -1.31242       -1.31118       -1.30854       -1.26523       -1.12222
       -0.69599       -0.67059       -0.66271       -0.65081       -0.61247
       -0.60282       -0.57429       -0.56127       -0.53395       -0.51839
       -0.48856       -0.48617       -0.47487       -0.44700       -0.40898
        0.16786        0.19698        0.21085        0.22124        0.26607
        0.27105        0.28681        0.32300        0.34635        0.34864
        0.39090        0.51941        0.53146        0.56160        0.59348
        0.59947        0.61893        0.62675        0.63521        0.64600
        0.66949        0.72774        0.94080        0.96538        0.98178
        0.99204        1.00381        1.03100        1.05663        1.06380
        1.09458        1.12466        1.12729        1.13732        1.14451
        1.17691        1.20020        1.29060        1.35707        1.36703
        1.39647        1.41650        1.45191        1.50258        1.50676
        1.51820        1.55332        1.55891        1.57019        1.57663
        1.66965        1.69324        1.71964        1.74941        1.77560
        1.80208        1.83908        1.88770        1.90041        1.94937
        1.95805        1.97035        2.01840        2.08309        2.22013
        2.23653        2.26011        2.26625        2.31938        2.33000
        2.37959        2.40000        2.40864        2.51817        2.62127
        2.66170        2.66901        2.70720        2.73303        2.75239
        2.76407        2.80027        2.83629        2.85784        2.86495
        2.95264        3.04149        3.06455        3.23123        3.45151
        3.46996        3.48633        3.49077        3.50774        3.52115
[...]

 Principal values of diagonalized transition strength matrix:

             a.u.               
 1      -0.00000000
 2       0.00000000
 3       0.00014127

 Principal axis of diagonalized transition strength matrix:


               Column   1     Column   2     Column   3
       1      -0.38451577    -0.48083238     0.78800244
       2      -0.12986578     0.87331802     0.46952157
       3       0.91393791    -0.07820390     0.39824822
    ==== End of matrix output ====


 CCSD   oscillator strength matrix for state nr. 13 of symmetry 1
 CCSD  excitation energy:15.12803350


               Column   1     Column   2     Column   3
       1     8.847146D-04   5.271465D-04   4.471271D-04
       2     5.271465D-04   3.140938D-04   2.664148D-04
       3     4.471271D-04   2.664148D-04   2.259698D-04
    ==== End of matrix output ====

 Principal values of diagonalized oscillator strength matrix:

             a.u.               
 1      -0.00000000
 2       0.00000000
 3       0.00142478

 Principal axis of diagonalized oscillator strength matrix:


               Column   1     Column   2     Column   3
       1      -0.38451577    -0.48083238     0.78800244
       2      -0.12986578     0.87331802     0.46952157
       3       0.91393791    -0.07820390     0.39824822
    ==== End of matrix output ====


 CCSD  Transition strength matrix for state nr. 14 of symmetry 1
 CCSD  excitation energy:15.22142229

 Gauge: length

               Column   1     Column   2     Column   3
       1     7.631621D-06   4.022600D-05  -1.326836D-05
       2     4.022600D-05   2.119798D-04  -6.991757D-05
       3    -1.326836D-05  -6.991757D-05   2.306083D-05
    ==== End of matrix output ====

 Principal values of diagonalized transition strength matrix:

             a.u.               
 1      -0.00000000
 2       0.00000000
 3       0.00024267

 Principal axis of diagonalized transition strength matrix:


               Column   1     Column   2     Column   3
       1       0.94358851    -0.27961671     0.17735620
       2      -0.07249357     0.34817910     0.93462078
       3       0.32308731     0.89475461    -0.30826739
    ==== End of matrix output ====


 CCSD   oscillator strength matrix for state nr. 14 of symmetry 1
 CCSD  excitation energy:15.22142229


               Column   1     Column   2     Column   3
       1       0.00007744     0.00040820    -0.00013464
       2       0.00040820     0.00215109    -0.00070950
       3      -0.00013464    -0.00070950     0.00023401
    ==== End of matrix output ====

 Principal values of diagonalized oscillator strength matrix:

             a.u.               
 1      -0.00000002
 2       0.00000000
 3       0.00246256

 Principal axis of diagonalized oscillator strength matrix:


               Column   1     Column   2     Column   3
       1       0.94358851    -0.27961671     0.17735620
       2      -0.07249357     0.34817910     0.93462078
       3       0.32308731     0.89475461    -0.30826739
    ==== End of matrix output ====


 CCSD  Transition strength matrix for state nr. 15 of symmetry 1
 CCSD  excitation energy:15.27233814

 Gauge: length

               Column   1     Column   2     Column   3
       1     3.740822D-04   1.876228D-04   3.197828D-05
       2     1.876228D-04   9.409889D-05   1.604038D-05
       3     3.197828D-05   1.604038D-05   2.733116D-06
    ==== End of matrix output ====

 Principal values of diagonalized transition strength matrix:

             a.u.               
 1      -0.00000000
 2      -0.00000000
 3       0.00047092

 Principal axis of diagonalized transition strength matrix:


               Column   1     Column   2     Column   3
       1      -0.38461004    -0.24022135     0.89127371
       2       0.83420109     0.32292803     0.44701904
       3      -0.39520078     0.91542951     0.07619155
    ==== End of matrix output ====


 CCSD   oscillator strength matrix for state nr. 15 of symmetry 1
 CCSD  excitation energy:15.27233814


               Column   1     Column   2     Column   3
       1       0.00380874     0.00191029     0.00032559
       2       0.00191029     0.00095807     0.00016332
       3       0.00032559     0.00016332     0.00002783
    ==== End of matrix output ====

 Principal values of diagonalized oscillator strength matrix:

             a.u.               
 1      -0.00000004
 2      -0.00000000
 3       0.00479468

 Principal axis of diagonalized oscillator strength matrix:


               Column   1     Column   2     Column   3
       1      -0.38461004    -0.24022135     0.89127371
       2       0.83420109     0.32292803     0.44701904
       3      -0.39520078     0.91542951     0.07619155
    ==== End of matrix output ====

  Total time for    135 linear response residues:     144.12 seconds.
  

 *******************************************************************************
 *******************************************************************************
 *                                                                             *
 *                                                                             *
 *                   SUMMARY OF COUPLED CLUSTER CALCULATION                    *
 *                                                                             *
 *                                                                             *
 *******************************************************************************
 *******************************************************************************

                                                                                
                                                                                
            Total SCF   energy:                  -360.7211595536                
            Total MP2   energy:                  -361.8214085909                
            Total CCSD  energy:                  -361.8615652722                
                                                                                
                                                                                
            Total SCF   energy:                  -360.7211595536                
            Total RSTAR energy:                  -361.8615652722                
            Total CCSD  energy:                  -361.8616831939                
                                                                                
                                                                                
            Total SCF   energy:                  -360.7211595536                
            Total RSTAR energy:                  -361.8616831939                
            Total CCSD  energy:                  -361.8616838466                
                                                                                
                                                                                
            Total SCF   energy:                  -360.7211595536                
            Total RSTAR energy:                  -361.8616838466                
            Total CCSD  energy:                  -361.8616839200                
                                                                                
                                                                                
            Total SCF   energy:                  -360.7211595536                
            Total RSTAR energy:                  -361.8616839200                
            Total CCSD  energy:                  -361.8616839223                
                                                                                
                                                                                
            Total SCF   energy:                  -360.7211595536                
            Total RSTAR energy:                  -361.8616839223                
            Total CCSD  energy:                  -361.8616839224                
            CCSD Total  energy:                  -362.1943447262                
            CCSD E(QM/MM)     :                    -0.3291257489                
                                                                                
                                                                                
                                                                                
 +=============================================================================+
 |  sym. | Exci.  |        CCSD       Excitation energies            | ||T1||  |
 |(spin, |        +------------------------------------------------------------+
 | spat) |        |     Hartree    |       eV.      |     cm-1       |    %    |
 +=============================================================================+
 | ^1A   |    1   |    14.8250990  |     403.41147  |   3253733.114  |  88.44  |
 | ^1A   |    2   |    14.8934629  |     405.27174  |   3268737.260  |  88.92  |
 | ^1A   |    3   |    14.9122972  |     405.78425  |   3272870.902  |  88.86  |
 | ^1A   |    4   |    14.9463302  |     406.71033  |   3280340.273  |  88.43  |
 | ^1A   |    5   |    14.9834841  |     407.72134  |   3288494.629  |  88.04  |
 | ^1A   |    6   |    14.9910011  |     407.92589  |   3290144.419  |  88.09  |
 | ^1A   |    7   |    14.9952598  |     408.04178  |   3291079.088  |  88.12  |
 | ^1A   |    8   |    15.0291580  |     408.96419  |   3298518.890  |  88.13  |
 | ^1A   |    9   |    15.0404193  |     409.27063  |   3300990.458  |  88.11  |
 | ^1A   |   10   |    15.0467614  |     409.44321  |   3302382.388  |  88.23  |
 | ^1A   |   11   |    15.0929770  |     410.70080  |   3312525.530  |  87.97  |
 | ^1A   |   12   |    15.1048983  |     411.02519  |   3315141.966  |  88.00  |
 | ^1A   |   13   |    15.1280335  |     411.65473  |   3320219.545  |  88.02  |
 | ^1A   |   14   |    15.2214223  |     414.19597  |   3340716.015  |  87.93  |
 | ^1A   |   15   |    15.2723381  |     415.58146  |   3351890.752  |  88.22  |
 +=============================================================================+
                                                                                
                                                                                
     Total energies in Hartree:                                                 
             1 ^1A       -347.0401199490                                        
             2 ^1A       -346.9717560293                                        
             3 ^1A       -346.9529217707                                        
             4 ^1A       -346.9188888142                                        
             5 ^1A       -346.8817348316                                        
             6 ^1A       -346.8742178374                                        
             7 ^1A       -346.8699591692                                        
             8 ^1A       -346.8360609373                                        
             9 ^1A       -346.8247996465                                        
            10 ^1A       -346.8184575435                                        
            11 ^1A       -346.7722419916                                        
            12 ^1A       -346.7603206307                                        
            13 ^1A       -346.7371854770                                        
            14 ^1A       -346.6437966861                                        
            15 ^1A       -346.5928808407                                        
                                                                                
                                                                                
 +=============================================================================+
 |  sym. | Exci.  |        CCSD       Length   Gauge Oscillator Strength       |
 |(spin, |        +------------------------------------------------------------+
 | spat) |        | Dipole Strength(a.u.) | Oscillator strength  | Direction   |
 +=============================================================================+
 | ^1A   |    1   |        0.0005133      |      0.0050729       |  (Y,Z)      |
 | ^1A   |    2   |        0.0034482      |      0.0342371       |  (Y,Z)      |
 | ^1A   |    3   |        0.0030663      |      0.0304835       |  (Y,Z)      |
 | ^1A   |    4   |        0.0016649      |      0.0165891       |  (Y,Z)      |
 | ^1A   |    5   |        0.0000843      |      0.0008416       |  (Y,Z)      |
 | ^1A   |    6   |        0.0007164      |      0.0071598       |  (Y,Z)      |
 | ^1A   |    7   |        0.0004619      |      0.0046176       |  (Y,Z)      |
 | ^1A   |    8   |        0.0002392      |      0.0023964       |  (Y,Z)      |
 | ^1A   |    9   |        0.0005440      |      0.0054550       |  (Y,Z)      |
 | ^1A   |   10   |        0.0009403      |      0.0094322       |  (Y,Z)      |
 | ^1A   |   11   |        0.0001114      |      0.0011206       |  (Y,Z)      |
 | ^1A   |   12   |        0.0000108      |      0.0001084       |  (Y,Z)      |
 | ^1A   |   13   |        0.0001413      |      0.0014248       |  (Y,Z)      |
 | ^1A   |   14   |        0.0002427      |      0.0024625       |  (Y,Z)      |
 | ^1A   |   15   |        0.0004709      |      0.0047946       |  (Y,Z)      |
 +=============================================================================+

  1 a.u. =        27.21138 eV.  
  1 a.u. =    219474.62934 cm-1.
  

 *******************************************************************************
 *******************************************************************************
 *                                                                             *
 *                                                                             *
 *                      END OF COUPLED CLUSTER CALCULATION                     *
 *                                                                             *
 *                                                                             *
 *******************************************************************************
 *******************************************************************************


 CPU and wall time for CC :  570441.118  112647.283

 
     Date and time (Linux)  : Sat Dec 29 19:03:36 2018
     Host name              : n-62-29-5                               


                      .-------------------------------------.
                      | End of Coupled Cluster Section (CC) |
                      `-------------------------------------'

  Total CPU  time used in DALTON: 158 hours 37 minutes 44 seconds
  Total wall time used in DALTON:  31 hours 19 minutes 27 seconds

 
     Date and time (Linux)  : Sat Dec 29 19:03:36 2018
     Host name              : n-62-29-5                               
  

 +---------------------------------------------------------+ 
 | List of selected calculated molecular properties (a.u.) | 
 +---------------------------------------------------------+ 

  Properties are read from unit number                      4

 CCSD       properties :
 #  1 1 CCSD/MM  Ground state Energy =    -362.1943447262
 #  2 1 E_QM/MM  Ground state Energy =      -0.3291257489
 #  3 1 Sy: 1 Sp: 1 Exc:  1 E_tot:   -347.0401199490 w:     14.8250990284 E_grs:   -361.8652189773
 #  4 1 Exctot   Excited state Energy =    -347.0401199490
 #  5 1 Sy: 1 Sp: 1 Exc:  2 E_tot:   -346.9717560293 w:     14.8934629480 E_grs:   -361.8652189773
 #  6 1 Exctot   Excited state Energy =    -346.9717560293
 #  7 1 Sy: 1 Sp: 1 Exc:  3 E_tot:   -346.9529217707 w:     14.9122972066 E_grs:   -361.8652189773
 #  8 1 Exctot   Excited state Energy =    -346.9529217707
 #  9 1 Sy: 1 Sp: 1 Exc:  4 E_tot:   -346.9188888142 w:     14.9463301632 E_grs:   -361.8652189773
 # 10 1 Exctot   Excited state Energy =    -346.9188888142
 # 11 1 Sy: 1 Sp: 1 Exc:  5 E_tot:   -346.8817348316 w:     14.9834841458 E_grs:   -361.8652189773
 # 12 1 Exctot   Excited state Energy =    -346.8817348316
 # 13 1 Sy: 1 Sp: 1 Exc:  6 E_tot:   -346.8742178374 w:     14.9910011399 E_grs:   -361.8652189773
 # 14 1 Exctot   Excited state Energy =    -346.8742178374
 # 15 1 Sy: 1 Sp: 1 Exc:  7 E_tot:   -346.8699591692 w:     14.9952598081 E_grs:   -361.8652189773
 # 16 1 Exctot   Excited state Energy =    -346.8699591692
 # 17 1 Sy: 1 Sp: 1 Exc:  8 E_tot:   -346.8360609373 w:     15.0291580401 E_grs:   -361.8652189773
 # 18 1 Exctot   Excited state Energy =    -346.8360609373
 # 19 1 Sy: 1 Sp: 1 Exc:  9 E_tot:   -346.8247996465 w:     15.0404193309 E_grs:   -361.8652189773
 # 20 1 Exctot   Excited state Energy =    -346.8247996465
 # 21 1 Sy: 1 Sp: 1 Exc: 10 E_tot:   -346.8184575435 w:     15.0467614338 E_grs:   -361.8652189773
 # 22 1 Exctot   Excited state Energy =    -346.8184575435
 # 23 1 Sy: 1 Sp: 1 Exc: 11 E_tot:   -346.7722419916 w:     15.0929769858 E_grs:   -361.8652189773
 # 24 1 Exctot   Excited state Energy =    -346.7722419916
 # 25 1 Sy: 1 Sp: 1 Exc: 12 E_tot:   -346.7603206307 w:     15.1048983467 E_grs:   -361.8652189773
 # 26 1 Exctot   Excited state Energy =    -346.7603206307
 # 27 1 Sy: 1 Sp: 1 Exc: 13 E_tot:   -346.7371854770 w:     15.1280335003 E_grs:   -361.8652189773
 # 28 1 Exctot   Excited state Energy =    -346.7371854770
 # 29 1 Sy: 1 Sp: 1 Exc: 14 E_tot:   -346.6437966861 w:     15.2214222913 E_grs:   -361.8652189773
 # 30 1 Exctot   Excited state Energy =    -346.6437966861
 # 31 1 Sy: 1 Sp: 1 Exc: 15 E_tot:   -346.5928808407 w:     15.2723381367 E_grs:   -361.8652189773
 # 32 1 Exctot   Excited state Energy =    -346.5928808407
 # 33 1 |<O|XDIPLEN |i(14.825099)>| =     0.02158947
 # 35 1 |<O|XDIPLEN |i(14.893463)>| =     0.01789728
 # 37 1 |<O|XDIPLEN |i(14.912297)>| =     0.00442887
 # 39 1 |<O|XDIPLEN |i(14.946330)>| =     0.03397194
 # 41 1 |<O|XDIPLEN |i(14.983484)>| =     0.00388496
 # 43 1 |<O|XDIPLEN |i(14.991001)>| =     0.00826053
 # 45 1 |<O|XDIPLEN |i(14.995260)>| =     0.01022538
 # 47 1 |<O|XDIPLEN |i(15.029158)>| =     0.00402060
 # 49 1 |<O|XDIPLEN |i(15.040419)>| =     0.02220149
 # 51 1 |<O|XDIPLEN |i(15.046761)>| =     0.02378810
 # 53 1 |<O|XDIPLEN |i(15.092977)>| =     0.00371931
 # 55 1 |<O|XDIPLEN |i(15.104898)>| =     0.00033972
 # 57 1 |<O|XDIPLEN |i(15.128034)>| =     0.00936604
 # 59 1 |<O|XDIPLEN |i(15.221422)>| =     0.00276254
 # 61 1 |<O|XDIPLEN |i(15.272338)>| =     0.01934120
 # 63 1 |<O|YDIPLEN |i(14.825099)>| =     0.00096682
 # 65 1 |<O|YDIPLEN |i(14.893463)>| =     0.01049247
 # 67 1 |<O|YDIPLEN |i(14.912297)>| =     0.05439690
 # 69 1 |<O|YDIPLEN |i(14.946330)>| =     0.00280415
 # 71 1 |<O|YDIPLEN |i(14.983484)>| =     0.00798129
 # 73 1 |<O|YDIPLEN |i(14.991001)>| =     0.02001682
 # 75 1 |<O|YDIPLEN |i(14.995260)>| =     0.01677132
 # 77 1 |<O|YDIPLEN |i(15.029158)>| =     0.00574721
 # 79 1 |<O|YDIPLEN |i(15.040419)>| =     0.00567878
 # 81 1 |<O|YDIPLEN |i(15.046761)>| =     0.01709424
 # 83 1 |<O|YDIPLEN |i(15.092977)>| =     0.00893839
 # 85 1 |<O|YDIPLEN |i(15.104898)>| =     0.00231214
 # 87 1 |<O|YDIPLEN |i(15.128034)>| =     0.00558064
 # 89 1 |<O|YDIPLEN |i(15.221422)>| =     0.01455953
 # 91 1 |<O|YDIPLEN |i(15.272338)>| =     0.00970046
 # 93 1 |<O|ZDIPLEN |i(14.825099)>| =     0.00679966
 # 95 1 |<O|ZDIPLEN |i(14.893463)>| =     0.05493443
 # 97 1 |<O|ZDIPLEN |i(14.912297)>| =     0.00936186
 # 99 1 |<O|ZDIPLEN |i(14.946330)>| =     0.02242571
 #101 1 |<O|ZDIPLEN |i(14.983484)>| =     0.00233732
 #103 1 |<O|ZDIPLEN |i(14.991001)>| =     0.01573229
 #105 1 |<O|ZDIPLEN |i(14.995260)>| =     0.00872202
 #107 1 |<O|ZDIPLEN |i(15.029158)>| =     0.01378344
 #109 1 |<O|ZDIPLEN |i(15.040419)>| =     0.00434544
 #111 1 |<O|ZDIPLEN |i(15.046761)>| =     0.00906634
 #113 1 |<O|ZDIPLEN |i(15.092977)>| =     0.00419969
 #115 1 |<O|ZDIPLEN |i(15.104898)>| =     0.00230196
 #117 1 |<O|ZDIPLEN |i(15.128034)>| =     0.00473347
 #119 1 |<O|ZDIPLEN |i(15.221422)>| =     0.00480217
 #121 1 |<O|ZDIPLEN |i(15.272338)>| =     0.00165321

 THE_END   
