

     ************************************************************************
     *************** Dalton - An Electronic Structure Program ***************
     ************************************************************************

    This is output from DALTON release Dalton2017.alpha (2016)
         ( Web site: http://daltonprogram.org )

   ----------------------------------------------------------------------------

    NOTE:
     
    Dalton is an experimental code for the evaluation of molecular
    properties using (MC)SCF, DFT, CI, and CC wave functions.
    The authors accept no responsibility for the performance of
    the code or for the correctness of the results.
     
    The code (in whole or part) is provided under a licence and
    is not to be reproduced for further distribution without
    the written permission of the authors or their representatives.
     
    See the home page "http://daltonprogram.org" for further information.
     
    If results obtained with this code are published,
    the appropriate citations would be both of:
     
       K. Aidas, C. Angeli, K. L. Bak, V. Bakken, R. Bast,
       L. Boman, O. Christiansen, R. Cimiraglia, S. Coriani,
       P. Dahle, E. K. Dalskov, U. Ekstroem,
       T. Enevoldsen, J. J. Eriksen, P. Ettenhuber, B. Fernandez,
       L. Ferrighi, H. Fliegl, L. Frediani, K. Hald, A. Halkier,
       C. Haettig, H. Heiberg, T. Helgaker, A. C. Hennum,
       H. Hettema, E. Hjertenaes, S. Hoest, I.-M. Hoeyvik,
       M. F. Iozzi, B. Jansik, H. J. Aa. Jensen, D. Jonsson,
       P. Joergensen, J. Kauczor, S. Kirpekar,
       T. Kjaergaard, W. Klopper, S. Knecht, R. Kobayashi, H. Koch,
       J. Kongsted, A. Krapp, K. Kristensen, A. Ligabue,
       O. B. Lutnaes, J. I. Melo, K. V. Mikkelsen, R. H. Myhre,
       C. Neiss, C. B. Nielsen, P. Norman, J. Olsen,
       J. M. H. Olsen, A. Osted, M. J. Packer, F. Pawlowski,
       T. B. Pedersen, P. F. Provasi, S. Reine, Z. Rinkevicius,
       T. A. Ruden, K. Ruud, V. Rybkin, P. Salek, C. C. M. Samson,
       A. Sanchez de Meras, T. Saue, S. P. A. Sauer,
       B. Schimmelpfennig, K. Sneskov, A. H. Steindal,
       K. O. Sylvester-Hvid, P. R. Taylor, A. M. Teale,
       E. I. Tellgren, D. P. Tew, A. J. Thorvaldsen, L. Thoegersen,
       O. Vahtras, M. A. Watson, D. J. D. Wilson, M. Ziolkowski
       and H. Agren,
       "The Dalton quantum chemistry program system",
       WIREs Comput. Mol. Sci. 2014, 4:269–284 (doi: 10.1002/wcms.1172)
     
    and
     
       Dalton, a Molecular Electronic Structure Program,
       Release Dalton2017.alpha (2016), see http://daltonprogram.org
   ----------------------------------------------------------------------------

    Authors in alphabetical order (major contribution(s) in parenthesis):

  Kestutis Aidas,           Vilnius University,           Lithuania   (QM/MM)
  Celestino Angeli,         University of Ferrara,        Italy       (NEVPT2)
  Keld L. Bak,              UNI-C,                        Denmark     (AOSOPPA, non-adiabatic coupling, magnetic properties)
  Vebjoern Bakken,          University of Oslo,           Norway      (DALTON; geometry optimizer, symmetry detection)
  Radovan Bast,             UiT The Arctic U. of Norway,  Norway      (DALTON installation and execution frameworks)
  Pablo Baudin,             University of Valencia,       Spain       (Cholesky excitation energies)
  Linus Boman,              NTNU,                         Norway      (Cholesky decomposition and subsystems)
  Ove Christiansen,         Aarhus University,            Denmark     (CC module)
  Renzo Cimiraglia,         University of Ferrara,        Italy       (NEVPT2)
  Sonia Coriani,            University of Trieste,        Italy       (CC module, MCD in RESPONS)
  Janusz Cukras,            University of Trieste,        Italy       (MChD in RESPONS)
  Paal Dahle,               University of Oslo,           Norway      (Parallelization)
  Erik K. Dalskov,          UNI-C,                        Denmark     (SOPPA)
  Thomas Enevoldsen,        Univ. of Southern Denmark,    Denmark     (SOPPA)
  Janus J. Eriksen,         Aarhus University,            Denmark     (Polarizable embedding model, TDA)
  Rasmus Faber,             University of Copenhagen,     Denmark     (Vib.avg. NMR with SOPPA, parallel AO-SOPPA)
  Berta Fernandez,          U. of Santiago de Compostela, Spain       (doublet spin, ESR in RESPONS)
  Lara Ferrighi,            Aarhus University,            Denmark     (PCM Cubic response)
  Heike Fliegl,             University of Oslo,           Norway      (CCSD(R12))
  Luca Frediani,            UiT The Arctic U. of Norway,  Norway      (PCM)
  Bin Gao,                  UiT The Arctic U. of Norway,  Norway      (Gen1Int library)
  Christof Haettig,         Ruhr-University Bochum,       Germany     (CC module)
  Kasper Hald,              Aarhus University,            Denmark     (CC module)
  Asger Halkier,            Aarhus University,            Denmark     (CC module)
  Frederik Beyer Hansen,    University of Copenhagen,     Denmark     (Parallel AO-SOPPA)
  Erik D. Hedegaard,        Univ. of Southern Denmark,    Denmark     (Polarizable embedding model, QM/MM)
  Hanne Heiberg,            University of Oslo,           Norway      (geometry analysis, selected one-electron integrals)
  Trygve Helgaker,          University of Oslo,           Norway      (DALTON; ABACUS, ERI, DFT modules, London, and much more)
  Alf Christian Hennum,     University of Oslo,           Norway      (Parity violation)
  Hinne Hettema,            University of Auckland,       New Zealand (quadratic response in RESPONS; SIRIUS supersymmetry)
  Eirik Hjertenaes,         NTNU,                         Norway      (Cholesky decomposition)
  Pi A. B. Haase,           University of Copenhagen,     Denmark     (Triplet AO-SOPPA)
  Maria Francesca Iozzi,    University of Oslo,           Norway      (RPA)
  Brano Jansik              Technical Univ. of Ostrava    Czech Rep.  (DFT cubic response)
  Hans Joergen Aa. Jensen,  Univ. of Southern Denmark,    Denmark     (DALTON; SIRIUS, RESPONS, ABACUS modules, London, and much more)
  Dan Jonsson,              UiT The Arctic U. of Norway,  Norway      (cubic response in RESPONS module)
  Poul Joergensen,          Aarhus University,            Denmark     (RESPONS, ABACUS, and CC modules)
  Maciej Kaminski,          University of Warsaw,         Poland      (CPPh in RESPONS)
  Joanna Kauczor,           Linkoeping University,        Sweden      (Complex polarization propagator (CPP) module)
  Sheela Kirpekar,          Univ. of Southern Denmark,    Denmark     (Mass-velocity & Darwin integrals)
  Wim Klopper,              KIT Karlsruhe,                Germany     (R12 code in CC, SIRIUS, and ABACUS modules)
  Stefan Knecht,            ETH Zurich,                   Switzerland (Parallel CI and MCSCF)
  Rika Kobayashi,           Australian National Univ.,    Australia   (DIIS in CC, London in MCSCF)
  Henrik Koch,              NTNU,                         Norway      (CC module, Cholesky decomposition)
  Jacob Kongsted,           Univ. of Southern Denmark,    Denmark     (Polarizable embedding model, QM/MM)
  Andrea Ligabue,           University of Modena,         Italy       (CTOCD, AOSOPPA)
  Nanna H. List             Univ. of Southern Denmark,    Denmark     (Polarizable embedding model)
  Ola B. Lutnaes,           University of Oslo,           Norway      (DFT Hessian)
  Juan I. Melo,             University of Buenos Aires,   Argentina   (LRESC, Relativistic Effects on NMR Shieldings)
  Kurt V. Mikkelsen,        University of Copenhagen,     Denmark     (MC-SCRF and QM/MM)
  Rolf H. Myhre,            NTNU,                         Norway      (Cholesky, subsystems and ECC2)
  Christian Neiss,          Univ. Erlangen-Nuernberg,     Germany     (CCSD(R12))
  Christian B. Nielsen,     University of Copenhagen,     Denmark     (QM/MM)
  Patrick Norman,           Linkoeping University,        Sweden      (Cubic response and complex frequency response in RESPONS)
  Jeppe Olsen,              Aarhus University,            Denmark     (SIRIUS CI/density modules)
  Jogvan Magnus H. Olsen,   Univ. of Southern Denmark,    Denmark     (Polarizable embedding model, QM/MM)
  Anders Osted,             Copenhagen University,        Denmark     (QM/MM)
  Martin J. Packer,         University of Sheffield,      UK          (SOPPA)
  Filip Pawlowski,          Kazimierz Wielki University,  Poland      (CC3)
  Morten N. Pedersen,       Univ. of Southern Denmark,    Denmark     (Polarizable embedding model)
  Thomas B. Pedersen,       University of Oslo,           Norway      (Cholesky decomposition)
  Patricio F. Provasi,      University of Northeastern,   Argentina   (Analysis of coupling constants in localized orbitals)
  Zilvinas Rinkevicius,     KTH Stockholm,                Sweden      (open-shell DFT, ESR)
  Elias Rudberg,            KTH Stockholm,                Sweden      (DFT grid and basis info)
  Torgeir A. Ruden,         University of Oslo,           Norway      (Numerical derivatives in ABACUS)
  Kenneth Ruud,             UiT The Arctic U. of Norway,  Norway      (DALTON; ABACUS magnetic properties and much more)
  Pawel Salek,              KTH Stockholm,                Sweden      (DALTON; DFT code)
  Claire C. M. Samson       University of Karlsruhe       Germany     (Boys localization, r12 integrals in ERI)
  Alfredo Sanchez de Meras, University of Valencia,       Spain       (CC module, Cholesky decomposition)
  Trond Saue,               Paul Sabatier University,     France      (direct Fock matrix construction)
  Stephan P. A. Sauer,      University of Copenhagen,     Denmark     (SOPPA(CCSD), SOPPA prop., AOSOPPA, vibrational g-factors)
  Bernd Schimmelpfennig,    Forschungszentrum Karlsruhe,  Germany     (AMFI module)
  Kristian Sneskov,         Aarhus University,            Denmark     (Polarizable embedding model, QM/MM)
  Arnfinn H. Steindal,      UiT The Arctic U. of Norway,  Norway      (parallel QM/MM, Polarizable embedding model)
  Casper Steinmann,         Univ. of Southern Denmark,    Denmark     (QFIT, Polarizable embedding model)
  K. O. Sylvester-Hvid,     University of Copenhagen,     Denmark     (MC-SCRF)
  Peter R. Taylor,          VLSCI/Univ. of Melbourne,     Australia   (Symmetry handling ABACUS, integral transformation)
  Andrew M. Teale,          University of Nottingham,     England     (DFT-AC, DFT-D)
  David P. Tew,             University of Bristol,        England     (CCSD(R12))
  Olav Vahtras,             KTH Stockholm,                Sweden      (triplet response, spin-orbit, ESR, TDDFT, open-shell DFT)
  David J. Wilson,          La Trobe University,          Australia   (DFT Hessian and DFT magnetizabilities)
  Hans Agren,               KTH Stockholm,                Sweden      (SIRIUS module, RESPONS, MC-SCRF solvation model)
 --------------------------------------------------------------------------------

     Date and time (Linux)  : Tue Jan  1 04:22:28 2019
     Host name              : n-62-24-6                               

 * Work memory size             :  1280000000 =  9.537 gigabytes.

 * Directories for basis set searches:
   1) /zhome/37/3/129401/NH3NH4/CCSD/AIMD_SAMPLING/nh3_4h2o_nd
   2) /zhome/9a/4/124800/source/dalton/build-mlcc/basis


Compilation information
-----------------------

 Who compiled             | rfaber
 Host                     | hpclogin1
 System                   | Linux-2.6.32-696.1.1.el6.x86_64
 CMake generator          | Unix Makefiles
 Processor                | x86_64
 64-bit integers          | ON
 MPI                      | OFF
 Fortran compiler         | /opt/intel/2016update2/compilers_and_libraries_201
                          | 6.2.181/linux/bin/intel64/ifort
 Fortran compiler version | ifort (IFORT) 16.0.2 20160204
 C compiler               | /opt/intel/2016update2/compilers_and_libraries_201
                          | 6.2.181/linux/bin/intel64/icc
 C compiler version       | icc (ICC) 16.0.2 20160204
 C++ compiler             | /opt/intel/2016update2/compilers_and_libraries_201
                          | 6.2.181/linux/bin/intel64/icpc
 C++ compiler version     | icpc (ICC) 16.0.2 20160204
 Static linking           | OFF
 Last Git revision        | bb4d1599ca5680a9f3980451fc8bbefdba436d59
 Git branch               | mlcc
 Configuration time       | 2017-06-13 16:11:03.928841


   Content of the .dal input file
 ----------------------------------

**DALTON
.RUN WAVE FUNCTIONS
*QMMM
.QMMM
**INTEGRALS
.DIPLEN
**WAVE FUNCTIONS
.CC
*PRINT
!To check the origin of excit
.PRINTL
   0 11
*SCF INP
.THRESH
1.0D-7
*CC INP
.CCSD
.THRLEQ
 1.0D-9
.THRENR
 1.0D-10
.FROIMP
4
0
.PRINT
 1
.MAX IT
 1200
.MAXRED
 1200
.MXLRV
1199
*CCSLV
.CCMM
.MXSLIT
200
.MXINIT
4 5
*CCEXCI
.NCCEXC
 15
.CVSEPARA
1
1
*CCLRSD
.DIPOLE
**END OF DALTON INPUT


   Content of the .mol file
 ----------------------------

ATOMBASIS


Atomtypes=4 Charge=0 Nosymm Angstrom
   7.00000    1    Basis=6-311G**
N          0.000000        0.000000        0.000000
   1.00000    3    Basis=6-311G**
H          0.602573       -0.835362       -0.059197
H          0.282138        0.679716        0.761549
H         -0.938591       -0.346478        0.154711
   8.00000    4    Basis=6-311G**
O          1.639684       -1.648091       -2.040508
O          0.329842        1.398457       -2.384758
O         -0.590709        2.856043        1.685525
O         -3.007428       -1.542445        0.436608
   1.00000    8    Basis=6-311G**
H          1.222955       -1.872422       -2.908150
H          1.899739       -2.547395       -1.668637
H          1.241671        1.707846       -2.302549
H          0.217031        0.783240       -1.553663
H         -0.957176        2.227981        2.376039
H          0.318541        3.042576        1.900796
H         -3.747928       -1.042245        0.151143
H         -3.083933       -1.693018        1.402798


       *******************************************************************
       *********** Output from DALTON general input processing ***********
       *******************************************************************

 --------------------------------------------------------------------------------
   Overall default print level:    0
   Print level for DALTON.STAT:    1

    HERMIT 1- and 2-electron integral sections will be executed
    "Old" integral transformation used (limited to max 255 basis functions)
    Wave function sections will be executed (SIRIUS module)
 --------------------------------------------------------------------------------


 Changes of defaults for *QMMM  :
 --------------------------------

 +------------------+
 |  WORD: | CHANGE: |
 +------------------+
 |   QMMM |       T |
 +------------------+
 


   ****************************************************************************
   *************** Output of molecule and basis set information ***************
   ****************************************************************************


    The two title cards from your ".mol" input:
    ------------------------------------------------------------------------
 1:                                                                         
 2:                                                                         
    ------------------------------------------------------------------------

  Coordinates are entered in Angstrom and converted to atomic units.
          - Conversion factor : 1 bohr = 0.52917721 A

  Atomic type no.    1
  --------------------
  Nuclear charge:   7.00000
  Number of symmetry independent centers:    1
  Number of basis sets to read;    2
  The basis set is "6-311G**" from the basis set library.
  Basis set file used for this atomic type with Z =   7 :
     "/zhome/9a/4/124800/source/dalton/build-mlcc/basis/6-311G**"

  Info about the basis set file: your basis has no documentation.
  Basis set: 6-311G**                                                                        

  Atomic type no.    2
  --------------------
  Nuclear charge:   1.00000
  Number of symmetry independent centers:    3
  Number of basis sets to read;    2
  The basis set is "6-311G**" from the basis set library.
  Basis set file used for this atomic type with Z =   1 :
     "/zhome/9a/4/124800/source/dalton/build-mlcc/basis/6-311G**"

  Info about the basis set file: your basis has no documentation.
  Basis set: 6-311G**                                                                        

  Atomic type no.    3
  --------------------
  Nuclear charge:   8.00000
  Number of symmetry independent centers:    4
  Number of basis sets to read;    2
  The basis set is "6-311G**" from the basis set library.
  Basis set file used for this atomic type with Z =   8 :
     "/zhome/9a/4/124800/source/dalton/build-mlcc/basis/6-311G**"

  Info about the basis set file: your basis has no documentation.
  Basis set: 6-311G**                                                                        

  Atomic type no.    4
  --------------------
  Nuclear charge:   1.00000
  Number of symmetry independent centers:    8
  Number of basis sets to read;    2
  The basis set is "6-311G**" from the basis set library.
  Basis set file used for this atomic type with Z =   1 :
     "/zhome/9a/4/124800/source/dalton/build-mlcc/basis/6-311G**"

  Info about the basis set file: your basis has no documentation.
  Basis set: 6-311G**                                                                        


                         SYMGRP: Point group information
                         -------------------------------

@    Point group: C1 


                                 Isotopic Masses
                                 ---------------

                           N          14.003074
                           H           1.007825
                           H           1.007825
                           H           1.007825
                           O          15.994915
                           O          15.994915
                           O          15.994915
                           O          15.994915
                           H           1.007825
                           H           1.007825
                           H           1.007825
                           H           1.007825
                           H           1.007825
                           H           1.007825
                           H           1.007825
                           H           1.007825

                       Total mass:    89.068809 amu
                       Natural abundance:  98.514 %

 Center-of-mass coordinates (a.u.):   -0.615607    0.363295   -0.818897


  Atoms and basis sets
  --------------------

  Number of atom types :    4
  Total number of atoms:   16

  label    atoms   charge   prim   cont     basis
  ----------------------------------------------------------------------
  N           1    7.0000    31    18      [11s5p1d|4s3p1d]                                   
  H           3    1.0000     8     6      [5s1p|3s1p]                                        
  O           4    8.0000    31    18      [11s5p1d|4s3p1d]                                   
  H           8    1.0000     8     6      [5s1p|3s1p]                                        
  ----------------------------------------------------------------------
  total:     16   50.0000   243   156
  ----------------------------------------------------------------------
  Spherical harmonic basis used.

  Threshold for neglecting AO integrals:  1.00D-12


  Cartesian Coordinates (a.u.)
  ----------------------------

  Total number of coordinates:   48
  N       :     1  x   0.0000000000    2  y   0.0000000000    3  z   0.0000000000
  H       :     4  x   1.1386979403    5  y  -1.5786053952    6  z  -0.1118661174
  H       :     7  x   0.5331635495    8  y   1.2844770828    9  z   1.4391190408
  H       :    10  x  -1.7736799334   11  y  -0.6547485283   12  z   0.2923614185
  O       :    13  x   3.0985536915   14  y  -3.1144406191   15  z  -3.8560012759
  O       :    16  x   0.6233110445   17  y   2.6427007276   18  z  -4.5065394944
  O       :    19  x  -1.1162782296   20  y   5.3971390712   21  z   3.1851806268
  O       :    22  x  -5.6832152606   23  y  -2.9147986129   24  z   0.8250695440
  H       :    25  x   2.3110500132   26  y  -3.5383647704   27  z  -5.4956070304
  H       :    28  x   3.5899864190   29  y  -4.8138788822   30  z  -3.1532669320
  H       :    31  x   2.3464181273   32  y   3.2273612037   33  z  -4.3511869994
  H       :    34  x   0.4101291506   35  y   1.4801090901   36  z  -2.9359975605
  H       :    37  x  -1.8088004934   38  y   4.2102739017   39  z   4.4900629723
  H       :    40  x   0.6019552496   41  y   5.7496353545   42  z   3.5919838595
  H       :    43  x  -7.0825574562   44  y  -1.9695576051   45  z   0.2856188757
  H       :    46  x  -5.8277887578   47  y  -3.1993403447   48  z   2.6509040287


   Interatomic separations (in Angstrom):
   --------------------------------------

            N           H           H           H           O           O     
            ------      ------      ------      ------      ------      ------
 N     :    0.000000
 H     :    1.031711    0.000000
 H     :    1.059043    1.752645    0.000000
 H     :    1.012391    1.630936    1.706314    0.000000
 O     :    3.093290    2.379437    3.887562    3.627766    0.000000
 O     :    2.784160    3.236134    3.227710    3.332060    3.334014    0.000000
 O     :    3.368518    4.253757    2.520316    3.566589    6.256612    4.420314
 O     :    3.407989    3.711859    3.983068    2.406219    5.267154    5.267483
 H     :    3.668640    3.094657    4.567848    4.047456    0.988327    3.430778
 H     :    3.589231    2.684026    4.351630    4.027996    1.007305    4.306641
 H     :    3.124135    3.450939    3.371417    3.874521    3.389601    0.966391
 H     :    1.753407    2.236503    2.318440    2.351652    2.858729    1.040162
 H     :    3.394944    4.212750    2.557264    3.400365    6.424446    5.000971
 H     :    3.601633    4.354383    2.623417    4.014334    6.267508    4.590123
 H     :    3.893081    4.360493    4.424836    2.894215    5.847798    5.386653
 H     :    3.787452    4.057503    4.167913    2.823718    5.845591    5.962940

            O           O           H           H           H           H     
            ------      ------      ------      ------      ------      ------
 O     :    0.000000
 O     :    5.171752    0.000000
 H     :    6.837369    5.403002    0.000000
 H     :    6.830071    5.433440    1.565253    0.000000
 H     :    4.536596    6.010176    3.631174    4.352238    0.000000
 H     :    3.929541    4.446024    3.146277    3.733344    1.570227    0.000000
 H     :    1.002781    4.709675    7.034837    6.879359    5.195638    4.348402
 H     :    0.952823    5.850499    6.935498    6.818271    4.505750    4.128945
 H     :    5.245856    0.938099    5.895604    6.121537    6.203201    4.686113
 H     :    5.195196    0.980841    6.096371    5.916136    6.633726    5.076306

            H           H           H           H     
            ------      ------      ------      ------
 H     :    0.000000
 H     :    1.586466    0.000000
 H     :    4.840748    6.023555    0.000000
 H     :    4.565581    5.852408    1.559178    0.000000


  Max    interatomic separation is    7.0348 Angstrom (   13.2939 Bohr)
  between atoms   13 and    9, "H     " and "H     ".

  Min HX interatomic separation is    0.9381 Angstrom (    1.7728 Bohr)

  Min YX interatomic separation is    2.7842 Angstrom (    5.2613 Bohr)


  Bond distances (Angstrom):
  --------------------------

                  atom 1     atom 2       distance
                  ------     ------       --------
  bond distance:  H          N            1.031711
  bond distance:  H          N            1.059043
  bond distance:  H          N            1.012391
  bond distance:  H          O            0.988327
  bond distance:  H          O            1.007305
  bond distance:  H          O            0.966391
  bond distance:  H          O            1.040162
  bond distance:  H          O            1.002781
  bond distance:  H          O            0.952823
  bond distance:  H          O            0.938099
  bond distance:  H          O            0.980841


  Bond angles (degrees):
  ----------------------

                  atom 1     atom 2     atom 3         angle
                  ------     ------     ------         -----
  bond angle:     H          N          H            113.912
  bond angle:     H          N          H            105.851
  bond angle:     H          N          H            110.901
  bond angle:     H          O          H            103.315
  bond angle:     H          O          H            102.928
  bond angle:     H          O          H            108.408
  bond angle:     H          O          H            108.665




 Principal moments of inertia (u*A**2) and principal axes
 --------------------------------------------------------

   IA     333.302562         -0.518775    0.486409    0.703050
   IB     437.758468          0.583694    0.802383   -0.124430
   IC     652.869847          0.624640   -0.345814    0.700170


 Rotational constants
 --------------------

               A                   B                   C

           1516.2770           1154.4700            774.0884 MHz
            0.050578            0.038509            0.025821 cm-1


@  Nuclear repulsion energy :  179.972452722605 Hartree


                     .---------------------------------------.
                     | Starting in Integral Section (HERMIT) |
                     `---------------------------------------'



 ***************************************************************************************
 ****************** Output from **INTEGRALS input processing (HERMIT) ******************
 ***************************************************************************************



    *************************************************************************
    ****************** Output from HERMIT input processing ******************
    *************************************************************************


 Default print level:        1

 * Nuclear model: Point charge

 Calculation of one- and two-electron Hamiltonian integrals.

 The following one-electron property integrals are calculated as requested:
          - overlap integrals
          - dipole length integrals

 Center of mass  (bohr):     -0.615606689829      0.363295422791     -0.818897202331
 Operator center (bohr):      0.000000000000      0.000000000000      0.000000000000
 Gauge origin    (bohr):      0.000000000000      0.000000000000      0.000000000000
 Dipole origin   (bohr):      0.000000000000      0.000000000000      0.000000000000
 
  *********************************** 
  QMMM electrostatic potential: 
  Multipole order                                    0
  Isotropic polarization  
  *********************************** 
 
  ---------------- 
  QMMM information 
  ---------------- 
 
  MM coordinates in au 
  -------------------- 
     1    -11.318860      1.442126     10.938343
     2    -10.009647      1.128646      9.565981
     3    -12.212501      3.049888     10.439822
     4     -8.317212     11.612501      2.273581
     5     -7.033052     10.545535      3.025932
     6     -8.565941     13.186422      3.200011
     7     -1.281930     -3.429789      7.402297
     8      0.476682     -3.537777      6.613938
     9     -2.387503     -4.486257      6.452436
    10     -7.710593      3.999447      7.099799
    11     -7.430670      4.839479      8.821967
    12     -5.969522      3.589896      6.594904
    13     -3.534315     -6.882596     -1.982032
    14     -4.284412     -5.307358     -1.282888
    15     -1.906399     -6.430073     -2.728865
    16     -6.780222      1.076806     -9.022894
    17     -8.460640      1.072140     -9.821009
    18     -5.619112      1.812523    -10.259822
    19      4.753920    -10.837942      9.751665
    20      3.050224    -11.372742      9.745618
    21      5.680953    -11.165932      8.156997
    22      5.813385     -5.503807      9.882776
    23      7.191152     -4.568305     10.758135
    24      6.365747     -7.216499      9.908667
    25     -6.772794     -2.302679     -4.674071
    26     -6.429372     -1.214304     -6.248285
    27     -6.220823     -3.976195     -5.346005
    28     -4.837429     -6.631325     -7.393506
    29     -3.446513     -7.568839     -6.536612
    30     -6.133306     -7.801341     -8.028876
    31      3.761239     -7.901130     -2.170241
    32      5.433853     -8.631757     -2.670965
    33      2.559708     -8.665432     -3.396957
    34     -2.681189      3.222467    -11.642000
    35     -1.813825      4.705548    -12.393623
    36     -1.218888      2.437097    -10.791020
    37     11.647943     -2.611252     -4.570403
    38     13.474019     -2.454399     -4.960754
    39     11.656838     -2.038697     -2.710198
    40     -9.792865      4.550461     -1.507391
    41    -10.878530      6.041226     -1.894114
    42     -8.440483      4.724089     -2.811661
    43     10.810819      2.543231      4.430843
    44     12.074690      3.899571      4.852983
    45     10.999501      1.234405      5.697082
    46      2.378855     -6.338438     -9.222871
    47      3.704874     -6.656795    -10.374630
    48      1.254922     -4.986634     -9.975284
    49     -4.544024     10.703316      8.844854
    50     -4.561283     10.245938      7.014408
    51     -5.757130      9.869696      9.955115
    52    -11.133556     -0.150337     -0.088989
    53    -10.486434      1.530682     -0.858763
    54    -11.568312      0.664694      1.582857
    55     -5.515648     -7.611683      8.493081
    56     -5.783138     -6.785264     10.203083
    57     -4.708984     -9.328786      8.748582
    58      6.573212     10.996953      5.364572
    59      5.363978      9.534345      5.275947
    60      5.639939     12.220007      4.378609
    61     11.545703      8.663644      5.540541
    62     13.086283      9.634610      5.966302
    63     10.322083      9.952163      4.999306
    64      1.712797      6.019328      9.070479
    65      1.538294      7.753437      9.988780
    66      3.050870      5.048885      9.942463
    67    -11.474759     11.060758    -10.980530
    68    -11.991603     12.757660    -11.128327
    69    -13.025803     10.015119    -11.385211
    70      7.517429      5.344488      0.989920
    71      8.563895      6.852799      0.568747
    72      8.832079      4.207194      1.603709
    73      3.455434     -3.981598      6.110021
    74      4.595307     -4.625146      7.492447
    75      4.402419     -2.699820      5.118801
    76     -2.612926     10.055471     -8.346312
    77     -4.513310     10.332206     -8.376632
    78     -2.228135      8.721430     -6.888664
    79      1.105212      0.305113     -8.676980
    80      0.146565     -1.232224     -9.253732
    81      0.393855      0.908975     -6.980503
    82    -11.176224     -8.120660     -4.582571
    83     -9.584579     -8.595427     -3.684494
    84    -11.466214     -6.123726     -4.481501
    85      9.781950      5.809094      9.320269
    86      8.647778      6.684124     10.596297
    87     10.584027      6.892916      8.069433
    88      5.984404     -0.875285      3.347591
    89      6.212066      0.372852      4.782532
    90      7.559381     -1.376949      2.709858
    91      5.134681      3.102422    -11.085086
    92      6.615774      3.062350     -9.978478
    93      3.623238      2.480538    -10.118274
    94     -0.481529     -8.859151     -5.913546
    95      0.675207     -8.283117     -7.310523
    96     -1.314830    -10.556222     -6.506527
    97      9.855842      4.557224     -8.151046
    98      9.094772      4.435340     -6.385659
    99     11.114156      5.901082     -8.158216
   100      7.036516     -0.664473     -6.125921
   101      5.624282     -1.713488     -5.440285
   102      8.739887     -1.435427     -5.368300
   103      6.865609      8.857322    -10.575803
   104      6.096680     10.434155    -11.359724
   105      6.580975      8.804916     -8.762242
   106     -0.709545    -10.250171      1.776465
   107      0.779376     -9.222538      2.436876
   108     -1.720802     -9.121723      0.733238
   109     -1.882517     -3.723441    -10.894475
   110     -1.909188     -3.473130    -12.763239
   111     -3.014433     -5.015849    -10.123149
   112      7.974661    -10.536637     -2.655574
   113      9.362705     -9.743273     -3.625821
   114      7.431766    -11.992306     -3.723554
   115      0.188956     10.313267     11.020569
   116     -0.231076     10.095663     12.854099
   117     -1.450028     10.578562     10.233451
   118     -2.230994      6.834652     -4.406796
   119     -1.460171      5.189084     -4.401537
   120     -1.379621      7.708550     -3.062356
   121     -7.544418     11.570442     -7.430035
   122     -9.241390     11.600700     -8.070676
   123     -7.581840     11.641781     -5.621013
   124      5.152854      8.855774     -5.115033
   125      5.509651      7.159454     -4.317590
   126      3.808340      9.457667     -4.008043
   127     -7.261749      5.579371     -6.109613
   128     -5.408283      5.982578     -5.859631
   129     -7.220077      3.866125     -7.030911
   130      1.155074      9.010885     -1.555294
   131      0.685056     10.623145     -0.647836
   132      1.076666      7.574253     -0.337734
   133      5.980968      2.478450      7.235724
   134      5.744202      1.910343      9.005278
   135      7.310169      3.740091      7.478209
   136     10.595577      9.103620     -0.296062
   137     12.126904      9.662034      0.558790
   138      9.890197     10.739461     -0.736035
   139      3.740210      6.893976      4.181399
   140      5.282508      6.151317      3.279181
   141      3.520573      5.787067      5.842893
   142      9.072947     -2.539465    -10.404014
   143      7.873859     -1.751670     -9.281501
   144      9.932072     -1.067344    -11.228324
   145      6.447432      3.940136     -3.760018
   146      7.096638      3.906841     -2.074080
   147      6.414844      2.182889     -4.413397
   148     -7.851604      7.229119     11.229784
   149     -7.321200      6.831813     12.957572
   150     -9.261279      8.446601     11.542576
   151     -7.299096    -10.077976     -2.416317
   152     -5.695670     -9.129594     -2.594730
   153     -7.507721    -10.808028     -0.730311
   154     -7.860342     -4.112263     11.604956
   155     -6.965026     -2.895323     12.600363
   156     -9.131123     -4.976186     12.725404
   157     11.591079     -2.804172      7.080656
   158     13.317159     -2.384989      6.559922
   159     11.211694     -1.981588      8.698767
   160      3.567750     -8.542424      3.524557
   161      3.511512     -6.890463      4.617196
   162      4.057359     -7.858335      1.801102
   163     -3.794506      9.767418      3.933588
   164     -2.458305      8.423772      3.986897
   165     -2.800589     11.267377      3.232327
   166     -2.502984      1.640148      6.864001
   167     -2.135963     -0.185136      6.624511
   168     -2.513440      2.012381      8.739398
   169     -9.758215     -7.856604      5.439202
   170    -11.267326     -6.735154      5.913535
   171     -8.514307     -7.600290      6.844981
   172     -6.628910     -2.504615      5.883044
   173     -5.808534     -0.927432      6.646609
   174     -6.285002     -3.708759      7.185733
   175    -11.613720     -7.103641     -9.935297
   176    -11.196952     -7.572662     -8.150812
   177    -12.551495     -5.455898     -9.726711
 
  MM charges 
  ---------- 
     1     -0.674440
     2      0.337220
     3      0.337220
     4     -0.674440
     5      0.337220
     6      0.337220
     7     -0.674440
     8      0.337220
     9      0.337220
    10     -0.674440
    11      0.337220
    12      0.337220
    13     -0.674440
    14      0.337220
    15      0.337220
    16     -0.674440
    17      0.337220
    18      0.337220
    19     -0.674440
    20      0.337220
    21      0.337220
    22     -0.674440
    23      0.337220
    24      0.337220
    25     -0.674440
    26      0.337220
    27      0.337220
    28     -0.674440
    29      0.337220
    30      0.337220
    31     -0.674440
    32      0.337220
    33      0.337220
    34     -0.674440
    35      0.337220
    36      0.337220
    37     -0.674440
    38      0.337220
    39      0.337220
    40     -0.674440
    41      0.337220
    42      0.337220
    43     -0.674440
    44      0.337220
    45      0.337220
    46     -0.674440
    47      0.337220
    48      0.337220
    49     -0.674440
    50      0.337220
    51      0.337220
    52     -0.674440
    53      0.337220
    54      0.337220
    55     -0.674440
    56      0.337220
    57      0.337220
    58     -0.674440
    59      0.337220
    60      0.337220
    61     -0.674440
    62      0.337220
    63      0.337220
    64     -0.674440
    65      0.337220
    66      0.337220
    67     -0.674440
    68      0.337220
    69      0.337220
    70     -0.674440
    71      0.337220
    72      0.337220
    73     -0.674440
    74      0.337220
    75      0.337220
    76     -0.674440
    77      0.337220
    78      0.337220
    79     -0.674440
    80      0.337220
    81      0.337220
    82     -0.674440
    83      0.337220
    84      0.337220
    85     -0.674440
    86      0.337220
    87      0.337220
    88     -0.674440
    89      0.337220
    90      0.337220
    91     -0.674440
    92      0.337220
    93      0.337220
    94     -0.674440
    95      0.337220
    96      0.337220
    97     -0.674440
    98      0.337220
    99      0.337220
   100     -0.674440
   101      0.337220
   102      0.337220
   103     -0.674440
   104      0.337220
   105      0.337220
   106     -0.674440
   107      0.337220
   108      0.337220
   109     -0.674440
   110      0.337220
   111      0.337220
   112     -0.674440
   113      0.337220
   114      0.337220
   115     -0.674440
   116      0.337220
   117      0.337220
   118     -0.674440
   119      0.337220
   120      0.337220
   121     -0.674440
   122      0.337220
   123      0.337220
   124     -0.674440
   125      0.337220
   126      0.337220
   127     -0.674440
   128      0.337220
   129      0.337220
   130     -0.674440
   131      0.337220
   132      0.337220
   133     -0.674440
   134      0.337220
   135      0.337220
   136     -0.674440
   137      0.337220
   138      0.337220
   139     -0.674440
   140      0.337220
   141      0.337220
   142     -0.674440
   143      0.337220
   144      0.337220
   145     -0.674440
   146      0.337220
   147      0.337220
   148     -0.674440
   149      0.337220
   150      0.337220
   151     -0.674440
   152      0.337220
   153      0.337220
   154     -0.674440
   155      0.337220
   156      0.337220
   157     -0.674440
   158      0.337220
   159      0.337220
   160     -0.674440
   161      0.337220
   162      0.337220
   163     -0.674440
   164      0.337220
   165      0.337220
   166     -0.674440
   167      0.337220
   168      0.337220
   169     -0.674440
   170      0.337220
   171      0.337220
   172     -0.674440
   173      0.337220
   174      0.337220
   175     -0.674440
   176      0.337220
   177      0.337220
 
  MM isotropic polarizabilities in au 
  ----------------------------------- 
     1      5.739350
     2      2.308390
     3      2.308390
     4      5.739350
     5      2.308390
     6      2.308390
     7      5.739350
     8      2.308390
     9      2.308390
    10      5.739350
    11      2.308390
    12      2.308390
    13      5.739350
    14      2.308390
    15      2.308390
    16      5.739350
    17      2.308390
    18      2.308390
    19      5.739350
    20      2.308390
    21      2.308390
    22      5.739350
    23      2.308390
    24      2.308390
    25      5.739350
    26      2.308390
    27      2.308390
    28      5.739350
    29      2.308390
    30      2.308390
    31      5.739350
    32      2.308390
    33      2.308390
    34      5.739350
    35      2.308390
    36      2.308390
    37      5.739350
    38      2.308390
    39      2.308390
    40      5.739350
    41      2.308390
    42      2.308390
    43      5.739350
    44      2.308390
    45      2.308390
    46      5.739350
    47      2.308390
    48      2.308390
    49      5.739350
    50      2.308390
    51      2.308390
    52      5.739350
    53      2.308390
    54      2.308390
    55      5.739350
    56      2.308390
    57      2.308390
    58      5.739350
    59      2.308390
    60      2.308390
    61      5.739350
    62      2.308390
    63      2.308390
    64      5.739350
    65      2.308390
    66      2.308390
    67      5.739350
    68      2.308390
    69      2.308390
    70      5.739350
    71      2.308390
    72      2.308390
    73      5.739350
    74      2.308390
    75      2.308390
    76      5.739350
    77      2.308390
    78      2.308390
    79      5.739350
    80      2.308390
    81      2.308390
    82      5.739350
    83      2.308390
    84      2.308390
    85      5.739350
    86      2.308390
    87      2.308390
    88      5.739350
    89      2.308390
    90      2.308390
    91      5.739350
    92      2.308390
    93      2.308390
    94      5.739350
    95      2.308390
    96      2.308390
    97      5.739350
    98      2.308390
    99      2.308390
   100      5.739350
   101      2.308390
   102      2.308390
   103      5.739350
   104      2.308390
   105      2.308390
   106      5.739350
   107      2.308390
   108      2.308390
   109      5.739350
   110      2.308390
   111      2.308390
   112      5.739350
   113      2.308390
   114      2.308390
   115      5.739350
   116      2.308390
   117      2.308390
   118      5.739350
   119      2.308390
   120      2.308390
   121      5.739350
   122      2.308390
   123      2.308390
   124      5.739350
   125      2.308390
   126      2.308390
   127      5.739350
   128      2.308390
   129      2.308390
   130      5.739350
   131      2.308390
   132      2.308390
   133      5.739350
   134      2.308390
   135      2.308390
   136      5.739350
   137      2.308390
   138      2.308390
   139      5.739350
   140      2.308390
   141      2.308390
   142      5.739350
   143      2.308390
   144      2.308390
   145      5.739350
   146      2.308390
   147      2.308390
   148      5.739350
   149      2.308390
   150      2.308390
   151      5.739350
   152      2.308390
   153      2.308390
   154      5.739350
   155      2.308390
   156      2.308390
   157      5.739350
   158      2.308390
   159      2.308390
   160      5.739350
   161      2.308390
   162      2.308390
   163      5.739350
   164      2.308390
   165      2.308390
   166      5.739350
   167      2.308390
   168      2.308390
   169      5.739350
   170      2.308390
   171      2.308390
   172      5.739350
   173      2.308390
   174      2.308390
   175      5.739350
   176      2.308390
   177      2.308390


     ************************************************************************
     ************************** Output from HERINT **************************
     ************************************************************************



                      Nuclear contribution to dipole moments
                      --------------------------------------

                 au               Debye          C m (/(10**-30)

      x    -30.18245622       -76.71614667      -255.89752050
      y     16.28216564        41.38513440       138.04594911
      z    -38.11619924       -96.88170868      -323.16259498


  Time used in HUCKEL     is       0.89 seconds
  Time used in OVERLAP    is       0.14 seconds
  Time used in POPOVLP    is       0.31 seconds
  Time used in DIPLEN     is       0.26 seconds
  Time used in QUADRUP    is       0.51 seconds
  Time used in KINENE     is       0.23 seconds

 Threshold for neglecting two-electron integrals:  1.00D-12
 HERMIT - Number of two-electron integrals written:    27129826 ( 36.2% )
 HERMIT - Megabytes written:                            310.653

  Time used in TWOINT     is      14.11 seconds
  Total CPU  time used in HERMIT:  16.51 seconds
  Total wall time used in HERMIT:   5.86 seconds


                        .----------------------------------.
                        | End of Integral Section (HERMIT) |
                        `----------------------------------'



                   .--------------------------------------------.
                   | Starting in Wave Function Section (SIRIUS) |
                   `--------------------------------------------'

NCCEXCI for singlet:   15
 CCSD_INPUT: core-val requested
 Requested number of core orbs per sym
                     1
 Indices of requested core orbs
                     1

 *** Output from Huckel module :

     Using EWMO model:          T
     Using EHT  model:          F
     Number of Huckel orbitals each symmetry:   36

 EWMO - Energy Weighted Maximum Overlap - is a Huckel type method,
        which normally is better than Extended Huckel Theory.
 Reference: Linderberg and Ohrn, Propagators in Quantum Chemistry (Wiley, 1973)

 Huckel EWMO eigenvalues for symmetry :  1
          -20.684956     -20.684676     -20.684551     -20.684167     -15.673530
           -1.698954      -1.611015      -1.600727      -1.573053      -1.456504
           -0.798143      -0.788862      -0.785898      -0.776298      -0.751769
           -0.745251      -0.693870      -0.683566      -0.675322      -0.670832
           -0.615237      -0.612268      -0.601640      -0.592252      -0.508758
           -0.253976      -0.241758      -0.235575      -0.222348      -0.186085
           -0.181161      -0.172930      -0.167290      -0.164565      -0.151071
           -0.146943

 **********************************************************************
 *SIRIUS* a direct, restricted step, second order MCSCF program       *
 **********************************************************************

 
     Date and time (Linux)  : Tue Jan  1 04:22:35 2019
     Host name              : n-62-24-6                               

 Title lines from ".mol" input file:
                                                                             
                                                                             

 Print level on unit LUPRI =   2 is   0
 Print level on unit LUW4  =   2 is  11

@    (Integral direct) CC calculation.

@    This is a combination run starting with
@              a restricted, closed shell Hartree-Fock calculation


 Initial molecular orbitals are obtained according to
 ".MOSTART EWMO  " input option

@    QM part is embedded in an environment :

@         Model: QMMM

     Wave function specification
     ============================

     For the specification of the Coupled Cluster: see later.

@    Wave function type        --- CC ---
@    Number of closed shell electrons          50
@    Number of electrons in active shells       0
@    Total charge of the molecule               0

@    Spin multiplicity and 2 M_S                1         0
@    Total number of symmetries                 1 (point group: C1 )
@    Reference state symmetry                   1 (irrep name : A  )

     Orbital specifications
     ======================
@    Abelian symmetry species          All |    1
@                                          |  A  
                                       --- |  ---
@    Occupied SCF orbitals              25 |   25
@    Secondary orbitals                131 |  131
@    Total number of orbitals          156 |  156
@    Number of basis functions         156 |  156

     Optimization information
     ========================
@    Number of configurations                 1
@    Number of orbital rotations           3275
     ------------------------------------------
@    Total number of variables             3276

     Maximum number of Fock   iterations      0
     Maximum number of DIIS   iterations     60
     Maximum number of QC-SCF iterations     60
     Threshold for SCF convergence     1.00D-07


 Changes of defaults for CC:
 ---------------------------


 -Implicit frozen core calculation
 -Excitation energies calculated
 -One-photon absorption strengths will be calculated
 -Oscillator strengths calculated
  
* Read MO coefficients from SIRIUS.RST with label "NEWORB  " and header info:  1Jan19  REORTHO 


 ***********************************************
 ***** DIIS acceleration of SCF iterations *****
 ***********************************************

 C1-DIIS algorithm; max error vectors =    8
 -----------------------------------------------------------------------------

 *** DIIS iteration number    1
 RDSUPM called. NFMAT, ISYMDM(1:NFMAT)                     1
                     1

Calculating AOSUPINT
     (Precalculated two-electron integrals are transformed to P-supermatrix elements.
      Threshold for discarding integrals :  1.00D-12 )
  CPU  time used in FORMSUP    is   7.39 seconds
  WALL time used in FORMSUP    is   8.18 seconds

 ITDIIS, energy, error norm, change in energy, scr.thr., difden:
@ DIIS iter.   1    -359.905290176        3.80925D+00   -3.60D+02  -20    F

 (DIIS_RED) Control Parameters C2DIIS =         F NEVC =    1


 (DIIS_RED) B matrix:

               Column   1
       1      14.51040457
    ==== End of matrix output ====

 DIIS C vector; C2DIIS = F, LAMBDA = -1.45D+01
    1.000000
* Read MO coefficients from SIRIUS.RST with label "NEWORB  " and header info:  1Jan19  DIIS   1
      Virial theorem: -V/T =      1.998426
@      MULPOP N      -0.34; H       0.16; H       0.15; H       0.15; O      -0.61; O      -0.85; O      -0.64; O      -0.63; H       0.32; H       0.32; 
@             H       0.32; H       0.32; H       0.33; H       0.33; H       0.33; H       0.33; 
   1  Level shift: doubly occupied orbital energies shifted by -2.00D-01

 DIIS Fock eigenvalues in symmetry 1
      -20.72366      -20.70342      -20.67170      -20.52362      -15.96939
       -1.55124       -1.52931       -1.49582       -1.45300       -1.40531
       -0.93691       -0.92053       -0.91223       -0.90348       -0.88431
       -0.85251       -0.78853       -0.77413       -0.75388       -0.74668
       -0.73947       -0.73615       -0.69271       -0.67732       -0.66060
        0.12114        0.15519        0.19635        0.21558        0.22789
        0.25902        0.26464        0.29137        0.31193        0.33105
        0.38060        0.43816        0.47387        0.51676        0.55060
        0.55588        0.57855        0.58923        0.59856        0.62057
        0.65998        0.66477        0.85859        0.87473        0.91958
        0.95519        0.97388        0.99036        1.00766        1.02013
        1.05486        1.07159        1.08900        1.13433        1.14598
        1.14957        1.19113        1.25011        1.26652        1.28775
        1.31744        1.38964        1.41968        1.45328        1.45898
        1.47386        1.49596        1.51694        1.52019        1.54147
        1.58487        1.62565        1.66360        1.68743        1.70390
        1.73835        1.75764        1.79014        1.83133        1.85009
        1.88740        1.91258        1.93013        2.00819        2.13463
        2.13802        2.17454        2.20886        2.29084        2.30480
        2.31147        2.32288        2.38071        2.40008        2.46709
        2.55620        2.60317        2.62828        2.65782        2.67316
        2.72291        2.73153        2.77869        2.78999        2.82723
        2.86559        2.88152        2.92466        3.15313        3.25012
        3.35179        3.41585        3.43816        3.48098        3.48420
        3.50526        3.51331        3.57989        3.58331        3.64242
        3.64324        3.70945        3.73042        3.95413        4.00130
        4.01053        4.06237        4.17872        4.21564        4.23591
        4.25513        4.46301        5.01167        5.02738        5.34420
        5.36902        5.41627        5.44908        5.68025        5.76558
        5.81781        5.83652        6.05126        6.12782        6.23309
        6.24370       36.77115       51.55297       51.55300       51.62676
       51.78000
 Time used in FCKEIG, thr_jaco:   4.14D-01  4.20D-02  1.66D-04
 CPU and wall times used in FCKEIG, THR_FCKEIG:   4.14D-01  4.20D-02  3.81D-02
 -----------------------------------------------------------------------------

 *** DIIS iteration number    2
 RDSUPM called. NFMAT, ISYMDM(1:NFMAT)                     1
                     1

 ITDIIS, energy, error norm, change in energy, scr.thr., difden:
@ DIIS iter.   2    -360.699851054        9.46438D-01   -7.95D-01  -20    F

 (DIIS_RED) Control Parameters C2DIIS =         F NEVC =    2


 (DIIS_RED) B matrix:

               Column   1     Column   2
       1      14.51040457
       2       0.91093815     0.89574422
    ==== End of matrix output ====

 DIIS C vector; C2DIIS = F, LAMBDA = -8.96D-01
   -0.001118    1.001118
* Read MO coefficients from SIRIUS.RST with label "NEWORB  " and header info:  1Jan19  DIIS   2
      Virial theorem: -V/T =      2.003930
@      MULPOP N      -0.66; H       0.24; H       0.22; H       0.24; O      -0.56; O      -0.67; O      -0.59; O      -0.59; H       0.27; H       0.31; 
@             H       0.24; H       0.33; H       0.32; H       0.29; H       0.31; H       0.31; 
   2  Level shift: doubly occupied orbital energies shifted by -5.00D-02

 DIIS Fock eigenvalues in symmetry 1
      -20.67008      -20.62231      -20.61648      -20.54093      -15.45862
       -1.38772       -1.37906       -1.37481       -1.32590       -1.12191
       -0.75747       -0.73382       -0.73052       -0.69958       -0.64876
       -0.64343       -0.63167       -0.62740       -0.61632       -0.57944
       -0.57571       -0.57229       -0.56621       -0.50519       -0.43204
        0.16147        0.18483        0.22724        0.23316        0.25793
        0.28172        0.29150        0.33268        0.33663        0.35933
        0.41069        0.49944        0.52864        0.55859        0.58430
        0.59324        0.61373        0.62834        0.63796        0.66007
        0.69878        0.70990        0.93344        0.94526        0.96088
        0.98151        0.99370        1.02254        1.03057        1.04937
        1.08470        1.09508        1.10735        1.13608        1.16259
        1.17004        1.19060        1.30091        1.31306        1.33340
        1.40355        1.44495        1.46241        1.49937        1.51240
        1.52433        1.53821        1.56777        1.57915        1.58368
        1.62087        1.63411        1.71261        1.74344        1.75338
        1.81140        1.82527        1.86558        1.89193        1.91356
        1.95011        1.97370        2.00343        2.07282        2.21994
        2.24695        2.25415        2.26249        2.33558        2.34934
        2.36893        2.38173        2.46909        2.48357        2.52637
        2.62084        2.65748        2.67557        2.72933        2.74846
        2.79224        2.80110        2.83763        2.85463        2.88534
        3.00187        3.01404        3.05525        3.28431        3.40713
        3.44091        3.45085        3.46415        3.49773        3.50533
        3.51233        3.53387        3.55137        3.62016        3.65792
        3.67025        3.67631        3.74945        3.95252        3.97455
        4.03047        4.10066        4.20111        4.20698        4.23373
        4.29225        4.61705        5.23743        5.24386        5.30155
        5.33448        5.37822        5.44277        5.68412        5.69301
        5.76047        5.84031        6.05873        6.11457        6.15289
        6.28222       37.12545       51.47809       51.49839       51.51280
       51.60989
 Time used in FCKEIG, thr_jaco:   2.82D-01  2.80D-02  4.13D-05
 CPU and wall times used in FCKEIG, THR_FCKEIG:   2.82D-01  2.80D-02  9.46D-03
 -----------------------------------------------------------------------------

 *** DIIS iteration number    3
 RDSUPM called. NFMAT, ISYMDM(1:NFMAT)                     1
                     1

 ITDIIS, energy, error norm, change in energy, scr.thr., difden:
@ DIIS iter.   3    -360.760901155        3.55855D-01   -6.11D-02  -20    F

 (DIIS_RED) Control Parameters C2DIIS =         F NEVC =    3


 (DIIS_RED) B matrix:

               Column   1     Column   2     Column   3
       1      14.51040457
       2       0.91093815     0.89574422
       3       0.64756595     0.04454542     0.12663298
    ==== End of matrix output ====

 DIIS C vector; C2DIIS = F, LAMBDA = -9.64D-02
   -0.041722    0.103399    0.938323
* Read MO coefficients from SIRIUS.RST with label "NEWORB  " and header info:  1Jan19  DIIS   3
      Virial theorem: -V/T =      2.001922
@      MULPOP N      -0.59; H       0.21; H       0.19; H       0.22; O      -0.62; O      -0.76; O      -0.64; O      -0.63; H       0.29; H       0.34; 
@             H       0.29; H       0.38; H       0.35; H       0.31; H       0.33; H       0.33; 
   3  Level shift: doubly occupied orbital energies shifted by -2.50D-02

 DIIS Fock eigenvalues in symmetry 1
      -20.56444      -20.55634      -20.50066      -20.50039      -15.56938
       -1.35210       -1.33480       -1.30604       -1.29434       -1.13426
       -0.72055       -0.69159       -0.66899       -0.66596       -0.63761
       -0.62725       -0.59108       -0.58243       -0.57331       -0.53754
       -0.53088       -0.52040       -0.49896       -0.46503       -0.42938
        0.16466        0.18896        0.23302        0.23629        0.25990
        0.28509        0.29277        0.33421        0.33551        0.36132
        0.41434        0.50071        0.52995        0.56716        0.59450
        0.59982        0.62119        0.63614        0.64504        0.66721
        0.70515        0.71485        0.94073        0.95454        0.97095
        0.98607        1.00245        1.02971        1.03644        1.04976
        1.09419        1.10615        1.11696        1.15749        1.17714
        1.17775        1.20178        1.30556        1.32162        1.33576
        1.39894        1.45046        1.46447        1.51020        1.52214
        1.53602        1.55027        1.57824        1.59187        1.59263
        1.63998        1.64214        1.72397        1.75182        1.76305
        1.81530        1.82901        1.86908        1.90019        1.92108
        1.95338        1.98117        2.00658        2.07756        2.23026
        2.23872        2.24313        2.27085        2.35409        2.36369
        2.38388        2.39367        2.47817        2.48468        2.53695
        2.63050        2.67048        2.68564        2.73556        2.75214
        2.80011        2.80507        2.84599        2.86178        2.89490
        2.98316        2.99741        3.03578        3.26405        3.38712
        3.45889        3.47637        3.49113        3.50607        3.52105
        3.54026        3.55219        3.56450        3.63380        3.68628
        3.69244        3.72146        3.76328        3.98916        4.01050
        4.04764        4.11391        4.22595        4.24608        4.26142
        4.30721        4.56961        5.18180        5.19125        5.36295
        5.38258        5.40324        5.45383        5.70508        5.76642
        5.79629        5.85442        6.08726        6.17416        6.19497
        6.29732       36.99378       51.52740       51.54010       51.62503
       51.63384
 Time used in FCKEIG, thr_jaco:   2.63D-01  2.70D-02  1.55D-05
 CPU and wall times used in FCKEIG, THR_FCKEIG:   2.63D-01  2.70D-02  3.56D-03
 -----------------------------------------------------------------------------

 *** DIIS iteration number    4
 RDSUPM called. NFMAT, ISYMDM(1:NFMAT)                     1
                     1

 ITDIIS, energy, error norm, change in energy, scr.thr., difden:
@ DIIS iter.   4    -360.769364966        1.19830D-01   -8.46D-03  -20    F

 (DIIS_RED) Control Parameters C2DIIS =         F NEVC =    4


 (DIIS_RED) B matrix:

               Column   1     Column   2     Column   3     Column   4
       1      14.51040457
       2       0.91093815     0.89574422
       3       0.64756595     0.04454542     0.12663298
       4       0.00196138     0.08645030    -0.01047349     0.01435914
    ==== End of matrix output ====

 DIIS C vector; C2DIIS = F, LAMBDA = -3.99D-03
   -0.000440   -0.093927    0.145264    0.949102
* Read MO coefficients from SIRIUS.RST with label "NEWORB  " and header info:  1Jan19  DIIS   4
      Virial theorem: -V/T =      2.002702
@      MULPOP N      -0.67; H       0.23; H       0.21; H       0.24; O      -0.63; O      -0.74; O      -0.65; O      -0.64; H       0.29; H       0.35; 
@             H       0.29; H       0.38; H       0.36; H       0.31; H       0.34; H       0.33; 
   4  Level shift: doubly occupied orbital energies shifted by -1.25D-02

 DIIS Fock eigenvalues in symmetry 1
      -20.55859      -20.55358      -20.52887      -20.49274      -15.52230
       -1.34274       -1.32606       -1.30639       -1.28491       -1.11005
       -0.71066       -0.68171       -0.66486       -0.65629       -0.61510
       -0.60535       -0.57933       -0.57230       -0.56707       -0.52542
       -0.51709       -0.50737       -0.49559       -0.45134       -0.40541
        0.16503        0.18830        0.23231        0.23582        0.26039
        0.28445        0.29313        0.33453        0.33754        0.36267
        0.41680        0.50485        0.53400        0.56812        0.59489
        0.60076        0.62071        0.63488        0.64410        0.66671
        0.70385        0.71581        0.94452        0.95998        0.96971
        0.98926        1.00320        1.03071        1.03886        1.05188
        1.09547        1.10611        1.11639        1.15431        1.17600
        1.17670        1.19959        1.30577        1.32163        1.33673
        1.40541        1.45295        1.46706        1.50981        1.52056
        1.53491        1.54890        1.57779        1.58958        1.59088
        1.63701        1.64023        1.72338        1.75084        1.76322
        1.81743        1.83084        1.87239        1.89866        1.92131
        1.95592        1.97898        2.00973        2.08041        2.23014
        2.24539        2.25052        2.26918        2.35055        2.35918
        2.38093        2.39131        2.47573        2.48946        2.53890
        2.62956        2.66878        2.68440        2.73502        2.75563
        2.79838        2.80852        2.84502        2.86069        2.89497
        2.99409        3.00668        3.04577        3.27395        3.39944
        3.45890        3.47570        3.48624        3.50900        3.51903
        3.54238        3.55028        3.55342        3.63235        3.68379
        3.69107        3.71042        3.76192        3.98472        4.00203
        4.04597        4.11217        4.22453        4.23879        4.25744
        4.30585        4.58459        5.20061        5.20892        5.35760
        5.36479        5.39759        5.45238        5.70239        5.75045
        5.78818        5.85236        6.08229        6.17056        6.17489
        6.29422       37.02780       51.51754       51.53368       51.59327
       51.62139
 Time used in FCKEIG, thr_jaco:   2.56D-01  2.60D-02  5.23D-06
 CPU and wall times used in FCKEIG, THR_FCKEIG:   2.56D-01  2.60D-02  1.20D-03
 -----------------------------------------------------------------------------

 *** DIIS iteration number    5
 RDSUPM called. NFMAT, ISYMDM(1:NFMAT)                     1
                     1

 ITDIIS, energy, error norm, change in energy, scr.thr., difden:
@ DIIS iter.   5    -360.770528366        2.37087D-02   -1.16D-03  -20    F

 (DIIS_RED) Control Parameters C2DIIS =         F NEVC =    5


 (DIIS_RED) B matrix:

               Column   1     Column   2     Column   3     Column   4     Column   5
       1      14.51040457
       2       0.91093815     0.89574422
       3       0.64756595     0.04454542     0.12663298
       4       0.00196138     0.08645030    -0.01047349     0.01435914
       5       0.01321713     0.00605608     0.00498103     0.00082245     0.00056210
    ==== End of matrix output ====

 DIIS C vector; C2DIIS = F, LAMBDA = -2.87D-04
    0.001439    0.008757   -0.068365   -0.152137    1.210307
* Read MO coefficients from SIRIUS.RST with label "NEWORB  " and header info:  1Jan19  DIIS   5
      Virial theorem: -V/T =      2.002375
@      MULPOP N      -0.66; H       0.23; H       0.20; H       0.24; O      -0.64; O      -0.76; O      -0.66; O      -0.65; H       0.29; H       0.36; 
@             H       0.30; H       0.39; H       0.36; H       0.32; H       0.34; H       0.34; 

 DIIS Fock eigenvalues in symmetry 1
      -20.54524      -20.54010      -20.51037      -20.47963      -15.50656
       -1.32993       -1.31319       -1.29172       -1.27246       -1.09686
       -0.69843       -0.66925       -0.65121       -0.64444       -0.60206
       -0.59251       -0.56694       -0.55901       -0.55382       -0.51321
       -0.50331       -0.49366       -0.48018       -0.43800       -0.39151
        0.16496        0.18811        0.23230        0.23567        0.26034
        0.28424        0.29306        0.33425        0.33759        0.36264
        0.41705        0.50509        0.53414        0.56817        0.59494
        0.60086        0.62078        0.63458        0.64379        0.66656
        0.70341        0.71588        0.94562        0.96068        0.97068
        0.98971        1.00385        1.03103        1.03956        1.05236
        1.09617        1.10630        1.11637        1.15495        1.17558
        1.17696        1.20006        1.30586        1.32179        1.33690
        1.40572        1.45314        1.46719        1.50986        1.52019
        1.53478        1.54868        1.57770        1.58880        1.59094
        1.63772        1.63965        1.72334        1.75048        1.76318
        1.81721        1.83066        1.87242        1.89814        1.92095
        1.95601        1.97809        2.00976        2.08043        2.22974
        2.24549        2.25086        2.26868        2.35013        2.35907
        2.38066        2.39093        2.47492        2.48972        2.53926
        2.62903        2.66850        2.68405        2.73432        2.75566
        2.79766        2.80826        2.84422        2.85990        2.89450
        2.99460        3.00718        3.04634        3.27447        3.40030
        3.45923        3.47604        3.48822        3.50962        3.51927
        3.54270        3.55071        3.55518        3.63209        3.68411
        3.69129        3.71237        3.76174        3.98554        4.00356
        4.04606        4.11186        4.22472        4.24055        4.25816
        4.30566        4.58625        5.20201        5.21016        5.35868
        5.36787        5.39854        5.45273        5.70273        5.75317
        5.78913        5.85241        6.08255        6.17071        6.17787
        6.29400       37.03097       51.51859       51.53452       51.59905
       51.62203
 Time used in FCKEIG, thr_jaco:   2.47D-01  2.50D-02  1.04D-06
 CPU and wall times used in FCKEIG, THR_FCKEIG:   2.48D-01  2.50D-02  2.37D-04
 -----------------------------------------------------------------------------

 *** DIIS iteration number    6
 RDSUPM called. NFMAT, ISYMDM(1:NFMAT)                     1
                     1

 ITDIIS, energy, error norm, change in energy, scr.thr., difden:
@ DIIS iter.   6    -360.770613066        7.35078D-03   -8.47D-05  -20    F

 (DIIS_RED) Control Parameters C2DIIS =         F NEVC =    6


 (DIIS_RED) B matrix:

               Column   1     Column   2     Column   3     Column   4     Column   5     Column   6
       1      14.51040457
       2       0.91093815     0.89574422
       3       0.64756595     0.04454542     0.12663298
       4       0.00196138     0.08645030    -0.01047349     0.01435914
       5       0.01321713     0.00605608     0.00498103     0.00082245     0.00056210
       6      -0.00166415    -0.00037832     0.00052843     0.00017137     0.00007250     0.00005403
    ==== End of matrix output ====

 DIIS C vector; C2DIIS = F, LAMBDA = -3.38D-05
    0.000437    0.007552   -0.020610   -0.077683    0.142436    0.947868
* Read MO coefficients from SIRIUS.RST with label "NEWORB  " and header info:  1Jan19  DIIS   6
      Virial theorem: -V/T =      2.002492
@      MULPOP N      -0.66; H       0.23; H       0.20; H       0.24; O      -0.64; O      -0.76; O      -0.66; O      -0.65; H       0.30; H       0.36; 
@             H       0.30; H       0.39; H       0.37; H       0.32; H       0.34; H       0.34; 

 DIIS Fock eigenvalues in symmetry 1
      -20.54545      -20.54023      -20.51245      -20.48014      -15.50980
       -1.32994       -1.31315       -1.29222       -1.27263       -1.09793
       -0.69858       -0.66933       -0.65175       -0.64475       -0.60293
       -0.59341       -0.56714       -0.55946       -0.55426       -0.51352
       -0.50316       -0.49351       -0.48051       -0.43804       -0.39236
        0.16486        0.18806        0.23222        0.23556        0.26025
        0.28417        0.29294        0.33413        0.33739        0.36247
        0.41683        0.50478        0.53390        0.56800        0.59481
        0.60070        0.62063        0.63446        0.64365        0.66639
        0.70323        0.71560        0.94515        0.96018        0.97053
        0.98944        1.00361        1.03082        1.03927        1.05201
        1.09607        1.10619        1.11626        1.15477        1.17539
        1.17676        1.19979        1.30565        1.32166        1.33662
        1.40522        1.45285        1.46686        1.50968        1.52003
        1.53462        1.54853        1.57752        1.58855        1.59077
        1.63742        1.63943        1.72316        1.75032        1.76297
        1.81691        1.83030        1.87211        1.89799        1.92075
        1.95565        1.97786        2.00943        2.08015        2.22955
        2.24489        2.25022        2.26847        2.34982        2.35876
        2.38050        2.39076        2.47464        2.48922        2.53886
        2.62885        2.66834        2.68386        2.73404        2.75535
        2.79747        2.80791        2.84400        2.85966        2.89434
        2.99372        3.00634        3.04547        3.27365        3.39921
        3.45907        3.47594        3.48753        3.50888        3.51919
        3.54215        3.55057        3.55458        3.63184        3.68407
        3.69121        3.71181        3.76151        3.98529        4.00308
        4.04597        4.11160        4.22464        4.23996        4.25795
        4.30542        4.58463        5.20034        5.20856        5.35856
        5.36700        5.39836        5.45238        5.70261        5.75229
        5.78887        5.85207        6.08246        6.17056        6.17683
        6.29365       37.02780       51.51842       51.53431       51.59704
       51.62150
 Time used in FCKEIG, thr_jaco:   3.27D-01  3.40D-02  3.21D-07
 CPU and wall times used in FCKEIG, THR_FCKEIG:   3.27D-01  3.40D-02  7.35D-05
 -----------------------------------------------------------------------------

 *** DIIS iteration number    7
 RDSUPM called. NFMAT, ISYMDM(1:NFMAT)                     1
                     1

 ITDIIS, energy, error norm, change in energy, scr.thr., difden:
@ DIIS iter.   7    -360.770618681        2.46033D-03   -5.62D-06  -20    F

 (DIIS_RED) Control Parameters C2DIIS =         F NEVC =    7


 (DIIS_RED) B matrix:

               Column   1     Column   2     Column   3     Column   4     Column   5     Column   6
       1      14.51040457
       2       0.91093815     0.89574422
       3       0.64756595     0.04454542     0.12663298
       4       0.00196138     0.08645030    -0.01047349     0.01435914
       5       0.01321713     0.00605608     0.00498103     0.00082245     0.00056210
       6      -0.00166415    -0.00037832     0.00052843     0.00017137     0.00007250     0.00005403
       7       0.00082830    -0.00001749     0.00007460    -0.00000071     0.00003340    -0.00000024

               Column   7
       7       0.00000605
    ==== End of matrix output ====

 DIIS C vector; C2DIIS = F, LAMBDA = -1.35D-06
   -0.000234   -0.001305    0.009231    0.023451   -0.166661    0.072409    1.063108
* Read MO coefficients from SIRIUS.RST with label "NEWORB  " and header info:  1Jan19  DIIS   7
      Virial theorem: -V/T =      2.002464
@      MULPOP N      -0.66; H       0.23; H       0.20; H       0.24; O      -0.64; O      -0.76; O      -0.66; O      -0.65; H       0.30; H       0.36; 
@             H       0.30; H       0.39; H       0.37; H       0.32; H       0.35; H       0.34; 

 DIIS Fock eigenvalues in symmetry 1
      -20.54543      -20.54022      -20.51170      -20.48010      -15.50910
       -1.32989       -1.31309       -1.29188       -1.27259       -1.09770
       -0.69858       -0.66930       -0.65150       -0.64476       -0.60279
       -0.59328       -0.56719       -0.55937       -0.55415       -0.51357
       -0.50307       -0.49340       -0.48015       -0.43796       -0.39209
        0.16489        0.18807        0.23227        0.23559        0.26027
        0.28418        0.29296        0.33414        0.33741        0.36252
        0.41691        0.50487        0.53398        0.56807        0.59489
        0.60077        0.62069        0.63446        0.64366        0.66642
        0.70324        0.71569        0.94531        0.96032        0.97065
        0.98950        1.00370        1.03087        1.03939        1.05210
        1.09617        1.10623        1.11630        1.15490        1.17540
        1.17684        1.19990        1.30572        1.32172        1.33672
        1.40532        1.45294        1.46695        1.50976        1.52003
        1.53466        1.54856        1.57756        1.58852        1.59086
        1.63759        1.63943        1.72323        1.75033        1.76304
        1.81694        1.83035        1.87219        1.89798        1.92078
        1.95575        1.97784        2.00949        2.08024        2.22956
        2.24499        2.25033        2.26847        2.34985        2.35883
        2.38051        2.39076        2.47463        2.48930        2.53900
        2.62885        2.66840        2.68391        2.73403        2.75537
        2.79745        2.80793        2.84401        2.85966        2.89441
        2.99389        3.00653        3.04565        3.27381        3.39945
        3.45912        3.47599        3.48784        3.50905        3.51924
        3.54225        3.55064        3.55487        3.63186        3.68413
        3.69125        3.71212        3.76154        3.98542        4.00332
        4.04600        4.11162        4.22469        4.24024        4.25808
        4.30545        4.58503        5.20069        5.20888        5.35865
        5.36740        5.39844        5.45243        5.70264        5.75266
        5.78899        5.85211        6.08249        6.17059        6.17728
        6.29368       37.02847       51.51845       51.53433       51.59777
       51.62155
 Time used in FCKEIG, thr_jaco:   2.26D-01  2.20D-02  1.07D-07
 CPU and wall times used in FCKEIG, THR_FCKEIG:   2.26D-01  2.20D-02  2.46D-05
 -----------------------------------------------------------------------------

 *** DIIS iteration number    8
 RDSUPM called. NFMAT, ISYMDM(1:NFMAT)                     1
                     1

 ITDIIS, energy, error norm, change in energy, scr.thr., difden:
@ DIIS iter.   8    -360.770619276        3.63871D-04   -5.94D-07  -20    F

 (DIIS_RED) Control Parameters C2DIIS =         F NEVC =    8


 (DIIS_RED) B matrix:

               Column   1     Column   2     Column   3     Column   4     Column   5     Column   6
       1      14.51040457
       2       0.91093815     0.89574422
       3       0.64756595     0.04454542     0.12663298
       4       0.00196138     0.08645030    -0.01047349     0.01435914
       5       0.01321713     0.00605608     0.00498103     0.00082245     0.00056210
       6      -0.00166415    -0.00037832     0.00052843     0.00017137     0.00007250     0.00005403
       7       0.00082830    -0.00001749     0.00007460    -0.00000071     0.00003340    -0.00000024
       8       0.00005302    -0.00000971    -0.00000099     0.00000332     0.00000098     0.00000150

               Column   7     Column   8
       7       0.00000605
       8       0.00000022     0.00000013
    ==== End of matrix output ====

 DIIS C vector; C2DIIS = F, LAMBDA = -6.98D-08
    0.000009    0.000026   -0.000672   -0.001497    0.019772   -0.046390   -0.135182    1.163935
* Read MO coefficients from SIRIUS.RST with label "NEWORB  " and header info:  1Jan19  DIIS   8
      Virial theorem: -V/T =      2.002480
@      MULPOP N      -0.66; H       0.23; H       0.20; H       0.24; O      -0.64; O      -0.76; O      -0.66; O      -0.65; H       0.30; H       0.36; 
@             H       0.30; H       0.39; H       0.37; H       0.32; H       0.35; H       0.34; 

 DIIS Fock eigenvalues in symmetry 1
      -20.54542      -20.54019      -20.51175      -20.48010      -15.50915
       -1.32989       -1.31308       -1.29190       -1.27259       -1.09772
       -0.69857       -0.66929       -0.65152       -0.64476       -0.60281
       -0.59331       -0.56720       -0.55939       -0.55417       -0.51358
       -0.50306       -0.49339       -0.48016       -0.43796       -0.39210
        0.16489        0.18807        0.23227        0.23558        0.26027
        0.28419        0.29296        0.33414        0.33740        0.36251
        0.41689        0.50486        0.53397        0.56806        0.59489
        0.60077        0.62069        0.63446        0.64366        0.66641
        0.70323        0.71568        0.94531        0.96031        0.97064
        0.98949        1.00369        1.03086        1.03938        1.05209
        1.09616        1.10623        1.11631        1.15490        1.17540
        1.17683        1.19990        1.30571        1.32172        1.33671
        1.40531        1.45293        1.46694        1.50975        1.52003
        1.53465        1.54856        1.57756        1.58851        1.59085
        1.63757        1.63942        1.72322        1.75033        1.76303
        1.81693        1.83034        1.87218        1.89798        1.92077
        1.95573        1.97783        2.00948        2.08022        2.22956
        2.24497        2.25032        2.26847        2.34985        2.35883
        2.38051        2.39076        2.47462        2.48929        2.53898
        2.62884        2.66839        2.68390        2.73402        2.75537
        2.79745        2.80792        2.84399        2.85965        2.89440
        2.99387        3.00651        3.04563        3.27379        3.39943
        3.45912        3.47600        3.48782        3.50904        3.51925
[...]

 Principal values of diagonalized transition strength matrix:

             a.u.               
 1      -0.00000000
 2      -0.00000000
 3       0.00000848

 Principal axis of diagonalized transition strength matrix:


               Column   1     Column   2     Column   3
       1      -0.04666975     0.62138738     0.78211230
       2       0.98177114    -0.11588374     0.15065319
       3       0.18424809     0.77488624    -0.60465193
    ==== End of matrix output ====


 CCSD   oscillator strength matrix for state nr. 13 of symmetry 1
 CCSD  excitation energy:15.13183019


               Column   1     Column   2     Column   3
       1     5.235180D-05   1.008634D-05  -4.047291D-05
       2     1.008634D-05   1.897467D-06  -7.804553D-06
       3    -4.047291D-05  -7.804553D-06   3.128838D-05
    ==== End of matrix output ====

 Principal values of diagonalized oscillator strength matrix:

             a.u.               
 1      -0.00000005
 2      -0.00000000
 3       0.00008558

 Principal axis of diagonalized oscillator strength matrix:


               Column   1     Column   2     Column   3
       1      -0.04666975     0.62138738     0.78211230
       2       0.98177114    -0.11588374     0.15065319
       3       0.18424809     0.77488624    -0.60465193
    ==== End of matrix output ====


 CCSD  Transition strength matrix for state nr. 14 of symmetry 1
 CCSD  excitation energy:15.18802674

 Gauge: length

               Column   1     Column   2     Column   3
       1     1.648233D-05   8.285567D-08  -3.645445D-05
       2     8.285567D-08  -1.841183D-09  -1.826519D-07
       3    -3.645445D-05  -1.826519D-07   8.062720D-05
    ==== End of matrix output ====

 Principal values of diagonalized transition strength matrix:

             a.u.               
 1      -0.00000000
 2       0.00000000
 3       0.00009711

 Principal axis of diagonalized transition strength matrix:


               Column   1     Column   2     Column   3
       1      -0.10045276     0.90563818    -0.41198148
       2       0.99400503     0.10931483    -0.00206531
       3      -0.04316526     0.40971913     0.91118988
    ==== End of matrix output ====


 CCSD   oscillator strength matrix for state nr. 14 of symmetry 1
 CCSD  excitation energy:15.18802674


               Column   1     Column   2     Column   3
       1     1.668894D-04   8.389427D-07  -3.691141D-04
       2     8.389427D-07  -1.864263D-08  -1.849415D-06
       3    -3.691141D-04  -1.849415D-06   8.163787D-04
    ==== End of matrix output ====

 Principal values of diagonalized oscillator strength matrix:

             a.u.               
 1      -0.00000002
 2      -0.00000000
 3       0.00098327

 Principal axis of diagonalized oscillator strength matrix:


               Column   1     Column   2     Column   3
       1      -0.10045276     0.90563818    -0.41198148
       2       0.99400503     0.10931483    -0.00206531
       3      -0.04316526     0.40971913     0.91118988
    ==== End of matrix output ====


 CCSD  Transition strength matrix for state nr. 15 of symmetry 1
 CCSD  excitation energy:15.25981134

 Gauge: length

               Column   1     Column   2     Column   3
       1     1.464986D-06   1.355596D-05  -2.247895D-05
       2     1.355596D-05   1.254131D-04  -2.079641D-04
       3    -2.247895D-05  -2.079641D-04   3.448528D-04
    ==== End of matrix output ====

 Principal values of diagonalized transition strength matrix:

             a.u.               
 1      -0.00000000
 2      -0.00000000
 3       0.00047173

 Principal axis of diagonalized transition strength matrix:


               Column   1     Column   2     Column   3
       1       0.99755806    -0.04209237    -0.05573288
       2       0.00734564     0.85678992    -0.51561330
       3       0.06945476     0.51394480     0.85500689
    ==== End of matrix output ====


 CCSD   oscillator strength matrix for state nr. 15 of symmetry 1
 CCSD  excitation energy:15.25981134


               Column   1     Column   2     Column   3
       1       0.00001490     0.00013791    -0.00022868
       2       0.00013791     0.00127585    -0.00211566
       3      -0.00022868    -0.00211566     0.00350826
    ==== End of matrix output ====

 Principal values of diagonalized oscillator strength matrix:

             a.u.               
 1      -0.00000000
 2      -0.00000000
 3       0.00479902

 Principal axis of diagonalized oscillator strength matrix:


               Column   1     Column   2     Column   3
       1       0.99755806    -0.04209237    -0.05573288
       2       0.00734564     0.85678992    -0.51561330
       3       0.06945476     0.51394480     0.85500689
    ==== End of matrix output ====

  Total time for    135 linear response residues:     207.97 seconds.
  

 *******************************************************************************
 *******************************************************************************
 *                                                                             *
 *                                                                             *
 *                   SUMMARY OF COUPLED CLUSTER CALCULATION                    *
 *                                                                             *
 *                                                                             *
 *******************************************************************************
 *******************************************************************************

                                                                                
                                                                                
            Total SCF   energy:                  -360.7706192944                
            Total MP2   energy:                  -361.8711942111                
            Total CCSD  energy:                  -361.9110349744                
                                                                                
                                                                                
            Total SCF   energy:                  -360.7706192944                
            Total RSTAR energy:                  -361.9110349744                
            Total CCSD  energy:                  -361.9111701205                
                                                                                
                                                                                
            Total SCF   energy:                  -360.7706192944                
            Total RSTAR energy:                  -361.9111701205                
            Total CCSD  energy:                  -361.9111714729                
                                                                                
                                                                                
            Total SCF   energy:                  -360.7706192944                
            Total RSTAR energy:                  -361.9111714729                
            Total CCSD  energy:                  -361.9111715767                
                                                                                
                                                                                
            Total SCF   energy:                  -360.7706192944                
            Total RSTAR energy:                  -361.9111715767                
            Total CCSD  energy:                  -361.9111715809                
                                                                                
                                                                                
            Total SCF   energy:                  -360.7706192944                
            Total RSTAR energy:                  -361.9111715809                
            Total CCSD  energy:                  -361.9111715810                
            CCSD Total  energy:                  -362.3123672679                
            CCSD E(QM/MM)     :                    -0.3964963623                
                                                                                
                                                                                
                                                                                
 +=============================================================================+
 |  sym. | Exci.  |        CCSD       Excitation energies            | ||T1||  |
 |(spin, |        +------------------------------------------------------------+
 | spat) |        |     Hartree    |       eV.      |     cm-1       |    %    |
 +=============================================================================+
 | ^1A   |    1   |    14.8157852  |     403.15802  |   3251688.954  |  88.20  |
 | ^1A   |    2   |    14.8742333  |     404.74848  |   3264516.849  |  88.59  |
 | ^1A   |    3   |    14.9141541  |     405.83478  |   3273278.434  |  88.76  |
 | ^1A   |    4   |    14.9461639  |     406.70581  |   3280303.782  |  88.09  |
 | ^1A   |    5   |    14.9797956  |     407.62097  |   3287685.085  |  87.91  |
 | ^1A   |    6   |    14.9836138  |     407.72487  |   3288523.080  |  87.89  |
 | ^1A   |    7   |    15.0352856  |     409.13093  |   3299863.732  |  87.88  |
 | ^1A   |    8   |    15.0474357  |     409.46156  |   3302530.383  |  88.02  |
 | ^1A   |    9   |    15.0598949  |     409.80059  |   3305264.856  |  87.89  |
 | ^1A   |   10   |    15.0643490  |     409.92179  |   3306242.405  |  87.94  |
 | ^1A   |   11   |    15.0967916  |     410.80460  |   3313362.737  |  87.74  |
 | ^1A   |   12   |    15.1167451  |     411.34756  |   3317742.018  |  87.82  |
 | ^1A   |   13   |    15.1318302  |     411.75805  |   3321052.822  |  87.80  |
 | ^1A   |   14   |    15.1880267  |     413.28723  |   3333386.539  |  87.63  |
 | ^1A   |   15   |    15.2598113  |     415.24059  |   3349141.439  |  87.97  |
 +=============================================================================+
                                                                                
                                                                                
     Total energies in Hartree:                                                 
             1 ^1A       -347.1000857547                                        
             2 ^1A       -347.0416375653                                        
             3 ^1A       -347.0017168484                                        
             4 ^1A       -346.9697070074                                        
             5 ^1A       -346.9360753129                                        
             6 ^1A       -346.9322571291                                        
             7 ^1A       -346.8805853164                                        
             8 ^1A       -346.8684351573                                        
             9 ^1A       -346.8559759851                                        
            10 ^1A       -346.8515219418                                        
            11 ^1A       -346.8190793230                                        
            12 ^1A       -346.7991258515                                        
            13 ^1A       -346.7840407164                                        
            14 ^1A       -346.7278441682                                        
            15 ^1A       -346.6560595618                                        
                                                                                
                                                                                
 +=============================================================================+
 |  sym. | Exci.  |        CCSD       Length   Gauge Oscillator Strength       |
 |(spin, |        +------------------------------------------------------------+
 | spat) |        | Dipole Strength(a.u.) | Oscillator strength  | Direction   |
 +=============================================================================+
 | ^1A   |    1   |        0.0008835      |      0.0087261       |  (Y,Z)      |
 | ^1A   |    2   |        0.0034724      |      0.0344329       |  (Y,Z)      |
 | ^1A   |    3   |        0.0035524      |      0.0353206       |  (Y,Z)      |
 | ^1A   |    4   |        0.0011595      |      0.0115531       |  (Y,Z)      |
 | ^1A   |    5   |        0.0001396      |      0.0013946       |  (Y,Z)      |
 | ^1A   |    6   |        0.0006850      |      0.0068425       |  (Y,Z)      |
 | ^1A   |    7   |        0.0004504      |      0.0045143       |  (Y,Z)      |
 | ^1A   |    8   |        0.0004235      |      0.0042484       |  (Y,Z)      |
 | ^1A   |    9   |        0.0003666      |      0.0036802       |  (Y,Z)      |
 | ^1A   |   10   |        0.0006574      |      0.0066027       |  (Y,Z)      |
 | ^1A   |   11   |        0.0004800      |      0.0048314       |  (Y,Z)      |
 | ^1A   |   12   |        0.0000385      |      0.0003875       |  (Y,Z)      |
 | ^1A   |   13   |        0.0000085      |      0.0000855       |  (Y,Z)      |
 | ^1A   |   14   |        0.0000971      |      0.0009832       |  (Y,Z)      |
 | ^1A   |   15   |        0.0004717      |      0.0047990       |  (Y,Z)      |
 +=============================================================================+

  1 a.u. =        27.21138 eV.  
  1 a.u. =    219474.62934 cm-1.
  

 *******************************************************************************
 *******************************************************************************
 *                                                                             *
 *                                                                             *
 *                      END OF COUPLED CLUSTER CALCULATION                     *
 *                                                                             *
 *                                                                             *
 *******************************************************************************
 *******************************************************************************


 CPU and wall time for CC :  487096.658   53502.912

 
     Date and time (Linux)  : Tue Jan  1 19:16:51 2019
     Host name              : n-62-24-6                               


                      .-------------------------------------.
                      | End of Coupled Cluster Section (CC) |
                      `-------------------------------------'

  Total CPU  time used in DALTON: 135 hours 30 minutes 17 seconds
  Total wall time used in DALTON:  14 hours 54 minutes 22 seconds

 
     Date and time (Linux)  : Tue Jan  1 19:16:51 2019
     Host name              : n-62-24-6                               
  

 +---------------------------------------------------------+ 
 | List of selected calculated molecular properties (a.u.) | 
 +---------------------------------------------------------+ 

  Properties are read from unit number                      4

 CCSD       properties :
 #  1 1 CCSD/MM  Ground state Energy =    -362.3123672679
 #  2 1 E_QM/MM  Ground state Energy =      -0.3964963623
 #  3 1 Sy: 1 Sp: 1 Exc:  1 E_tot:   -347.1000857547 w:     14.8157851510 E_grs:   -361.9158709056
 #  4 1 Exctot   Excited state Energy =    -347.1000857547
 #  5 1 Sy: 1 Sp: 1 Exc:  2 E_tot:   -347.0416375653 w:     14.8742333403 E_grs:   -361.9158709056
 #  6 1 Exctot   Excited state Energy =    -347.0416375653
 #  7 1 Sy: 1 Sp: 1 Exc:  3 E_tot:   -347.0017168484 w:     14.9141540572 E_grs:   -361.9158709056
 #  8 1 Exctot   Excited state Energy =    -347.0017168484
 #  9 1 Sy: 1 Sp: 1 Exc:  4 E_tot:   -346.9697070074 w:     14.9461638982 E_grs:   -361.9158709056
 # 10 1 Exctot   Excited state Energy =    -346.9697070074
 # 11 1 Sy: 1 Sp: 1 Exc:  5 E_tot:   -346.9360753129 w:     14.9797955928 E_grs:   -361.9158709056
 # 12 1 Exctot   Excited state Energy =    -346.9360753129
 # 13 1 Sy: 1 Sp: 1 Exc:  6 E_tot:   -346.9322571291 w:     14.9836137765 E_grs:   -361.9158709056
 # 14 1 Exctot   Excited state Energy =    -346.9322571291
 # 15 1 Sy: 1 Sp: 1 Exc:  7 E_tot:   -346.8805853164 w:     15.0352855893 E_grs:   -361.9158709056
 # 16 1 Exctot   Excited state Energy =    -346.8805853164
 # 17 1 Sy: 1 Sp: 1 Exc:  8 E_tot:   -346.8684351573 w:     15.0474357483 E_grs:   -361.9158709056
 # 18 1 Exctot   Excited state Energy =    -346.8684351573
 # 19 1 Sy: 1 Sp: 1 Exc:  9 E_tot:   -346.8559759851 w:     15.0598949205 E_grs:   -361.9158709056
 # 20 1 Exctot   Excited state Energy =    -346.8559759851
 # 21 1 Sy: 1 Sp: 1 Exc: 10 E_tot:   -346.8515219418 w:     15.0643489638 E_grs:   -361.9158709056
 # 22 1 Exctot   Excited state Energy =    -346.8515219418
 # 23 1 Sy: 1 Sp: 1 Exc: 11 E_tot:   -346.8190793230 w:     15.0967915827 E_grs:   -361.9158709056
 # 24 1 Exctot   Excited state Energy =    -346.8190793230
 # 25 1 Sy: 1 Sp: 1 Exc: 12 E_tot:   -346.7991258515 w:     15.1167450541 E_grs:   -361.9158709056
 # 26 1 Exctot   Excited state Energy =    -346.7991258515
 # 27 1 Sy: 1 Sp: 1 Exc: 13 E_tot:   -346.7840407164 w:     15.1318301892 E_grs:   -361.9158709056
 # 28 1 Exctot   Excited state Energy =    -346.7840407164
 # 29 1 Sy: 1 Sp: 1 Exc: 14 E_tot:   -346.7278441682 w:     15.1880267375 E_grs:   -361.9158709056
 # 30 1 Exctot   Excited state Energy =    -346.7278441682
 # 31 1 Sy: 1 Sp: 1 Exc: 15 E_tot:   -346.6560595618 w:     15.2598113439 E_grs:   -361.9158709056
 # 32 1 Exctot   Excited state Energy =    -346.6560595618
 # 33 1 |<O|XDIPLEN |i(14.815785)>| =     0.01200390
 # 35 1 |<O|XDIPLEN |i(14.874233)>| =     0.00722884
 # 37 1 |<O|XDIPLEN |i(14.914154)>| =     0.05919008
 # 39 1 |<O|XDIPLEN |i(14.946164)>| =     0.00076120
 # 41 1 |<O|XDIPLEN |i(14.979796)>| =     0.00567474
 # 43 1 |<O|XDIPLEN |i(14.983614)>| =     0.00751067
 # 45 1 |<O|XDIPLEN |i(15.035286)>| =     0.01710965
 # 47 1 |<O|XDIPLEN |i(15.047436)>| =     0.00442482
 # 49 1 |<O|XDIPLEN |i(15.059895)>| =     0.01859643
 # 51 1 |<O|XDIPLEN |i(15.064349)>| =     0.00990490
 # 53 1 |<O|XDIPLEN |i(15.096792)>| =     0.00625465
 # 55 1 |<O|XDIPLEN |i(15.116745)>| =     0.00438741
 # 57 1 |<O|XDIPLEN |i(15.131830)>| =     0.00227806
 # 59 1 |<O|XDIPLEN |i(15.188027)>| =     0.00405984
 # 61 1 |<O|XDIPLEN |i(15.259811)>| =     0.00121037
 # 63 1 |<O|YDIPLEN |i(14.815785)>| =     0.00069496
 # 65 1 |<O|YDIPLEN |i(14.874233)>| =     0.05389433
 # 67 1 |<O|YDIPLEN |i(14.914154)>| =     0.00391464
 # 69 1 |<O|YDIPLEN |i(14.946164)>| =     0.01866052
 # 71 1 |<O|YDIPLEN |i(14.979796)>| =     0.00827597
 # 73 1 |<O|YDIPLEN |i(14.983614)>| =     0.01501379
 # 75 1 |<O|YDIPLEN |i(15.035286)>| =     0.01068431
 # 77 1 |<O|YDIPLEN |i(15.047436)>| =     0.00090736
 # 79 1 |<O|YDIPLEN |i(15.059895)>| =     0.00410665
 # 81 1 |<O|YDIPLEN |i(15.064349)>| =     0.01752541
 # 83 1 |<O|YDIPLEN |i(15.096792)>| =     0.00793048
 # 85 1 |<O|YDIPLEN |i(15.116745)>| =     0.00113272
 # 87 1 |<O|YDIPLEN |i(15.131830)>| =     0.00043370
 # 89 1 |<O|YDIPLEN |i(15.188027)>| =    -0.00004291
 # 91 1 |<O|YDIPLEN |i(15.259811)>| =     0.01119880
 # 93 1 |<O|ZDIPLEN |i(14.815785)>| =     0.02718239
 # 95 1 |<O|ZDIPLEN |i(14.874233)>| =     0.02270573
 # 97 1 |<O|ZDIPLEN |i(14.914154)>| =     0.00579660
 # 99 1 |<O|ZDIPLEN |i(14.946164)>| =     0.02847235
 #101 1 |<O|ZDIPLEN |i(14.979796)>| =     0.00624119
 #103 1 |<O|ZDIPLEN |i(14.983614)>| =     0.02007928
 #105 1 |<O|ZDIPLEN |i(15.035286)>| =     0.00659367
 #107 1 |<O|ZDIPLEN |i(15.047436)>| =     0.02007734
 #109 1 |<O|ZDIPLEN |i(15.059895)>| =     0.00196539
 #111 1 |<O|ZDIPLEN |i(15.064349)>| =     0.01588083
 #113 1 |<O|ZDIPLEN |i(15.096792)>| =     0.01944299
 #115 1 |<O|ZDIPLEN |i(15.116745)>| =     0.00423308
 #117 1 |<O|ZDIPLEN |i(15.131830)>| =     0.00176113
 #119 1 |<O|ZDIPLEN |i(15.188027)>| =     0.00897926
 #121 1 |<O|ZDIPLEN |i(15.259811)>| =     0.01857021

 THE_END   
