

     ************************************************************************
     *************** Dalton - An Electronic Structure Program ***************
     ************************************************************************

    This is output from DALTON release Dalton2017.alpha (2016)
         ( Web site: http://daltonprogram.org )

   ----------------------------------------------------------------------------

    NOTE:
     
    Dalton is an experimental code for the evaluation of molecular
    properties using (MC)SCF, DFT, CI, and CC wave functions.
    The authors accept no responsibility for the performance of
    the code or for the correctness of the results.
     
    The code (in whole or part) is provided under a licence and
    is not to be reproduced for further distribution without
    the written permission of the authors or their representatives.
     
    See the home page "http://daltonprogram.org" for further information.
     
    If results obtained with this code are published,
    the appropriate citations would be both of:
     
       K. Aidas, C. Angeli, K. L. Bak, V. Bakken, R. Bast,
       L. Boman, O. Christiansen, R. Cimiraglia, S. Coriani,
       P. Dahle, E. K. Dalskov, U. Ekstroem,
       T. Enevoldsen, J. J. Eriksen, P. Ettenhuber, B. Fernandez,
       L. Ferrighi, H. Fliegl, L. Frediani, K. Hald, A. Halkier,
       C. Haettig, H. Heiberg, T. Helgaker, A. C. Hennum,
       H. Hettema, E. Hjertenaes, S. Hoest, I.-M. Hoeyvik,
       M. F. Iozzi, B. Jansik, H. J. Aa. Jensen, D. Jonsson,
       P. Joergensen, J. Kauczor, S. Kirpekar,
       T. Kjaergaard, W. Klopper, S. Knecht, R. Kobayashi, H. Koch,
       J. Kongsted, A. Krapp, K. Kristensen, A. Ligabue,
       O. B. Lutnaes, J. I. Melo, K. V. Mikkelsen, R. H. Myhre,
       C. Neiss, C. B. Nielsen, P. Norman, J. Olsen,
       J. M. H. Olsen, A. Osted, M. J. Packer, F. Pawlowski,
       T. B. Pedersen, P. F. Provasi, S. Reine, Z. Rinkevicius,
       T. A. Ruden, K. Ruud, V. Rybkin, P. Salek, C. C. M. Samson,
       A. Sanchez de Meras, T. Saue, S. P. A. Sauer,
       B. Schimmelpfennig, K. Sneskov, A. H. Steindal,
       K. O. Sylvester-Hvid, P. R. Taylor, A. M. Teale,
       E. I. Tellgren, D. P. Tew, A. J. Thorvaldsen, L. Thoegersen,
       O. Vahtras, M. A. Watson, D. J. D. Wilson, M. Ziolkowski
       and H. Agren,
       "The Dalton quantum chemistry program system",
       WIREs Comput. Mol. Sci. 2014, 4:269–284 (doi: 10.1002/wcms.1172)
     
    and
     
       Dalton, a Molecular Electronic Structure Program,
       Release Dalton2017.alpha (2016), see http://daltonprogram.org
   ----------------------------------------------------------------------------

    Authors in alphabetical order (major contribution(s) in parenthesis):

  Kestutis Aidas,           Vilnius University,           Lithuania   (QM/MM)
  Celestino Angeli,         University of Ferrara,        Italy       (NEVPT2)
  Keld L. Bak,              UNI-C,                        Denmark     (AOSOPPA, non-adiabatic coupling, magnetic properties)
  Vebjoern Bakken,          University of Oslo,           Norway      (DALTON; geometry optimizer, symmetry detection)
  Radovan Bast,             UiT The Arctic U. of Norway,  Norway      (DALTON installation and execution frameworks)
  Pablo Baudin,             University of Valencia,       Spain       (Cholesky excitation energies)
  Linus Boman,              NTNU,                         Norway      (Cholesky decomposition and subsystems)
  Ove Christiansen,         Aarhus University,            Denmark     (CC module)
  Renzo Cimiraglia,         University of Ferrara,        Italy       (NEVPT2)
  Sonia Coriani,            University of Trieste,        Italy       (CC module, MCD in RESPONS)
  Janusz Cukras,            University of Trieste,        Italy       (MChD in RESPONS)
  Paal Dahle,               University of Oslo,           Norway      (Parallelization)
  Erik K. Dalskov,          UNI-C,                        Denmark     (SOPPA)
  Thomas Enevoldsen,        Univ. of Southern Denmark,    Denmark     (SOPPA)
  Janus J. Eriksen,         Aarhus University,            Denmark     (Polarizable embedding model, TDA)
  Rasmus Faber,             University of Copenhagen,     Denmark     (Vib.avg. NMR with SOPPA, parallel AO-SOPPA)
  Berta Fernandez,          U. of Santiago de Compostela, Spain       (doublet spin, ESR in RESPONS)
  Lara Ferrighi,            Aarhus University,            Denmark     (PCM Cubic response)
  Heike Fliegl,             University of Oslo,           Norway      (CCSD(R12))
  Luca Frediani,            UiT The Arctic U. of Norway,  Norway      (PCM)
  Bin Gao,                  UiT The Arctic U. of Norway,  Norway      (Gen1Int library)
  Christof Haettig,         Ruhr-University Bochum,       Germany     (CC module)
  Kasper Hald,              Aarhus University,            Denmark     (CC module)
  Asger Halkier,            Aarhus University,            Denmark     (CC module)
  Frederik Beyer Hansen,    University of Copenhagen,     Denmark     (Parallel AO-SOPPA)
  Erik D. Hedegaard,        Univ. of Southern Denmark,    Denmark     (Polarizable embedding model, QM/MM)
  Hanne Heiberg,            University of Oslo,           Norway      (geometry analysis, selected one-electron integrals)
  Trygve Helgaker,          University of Oslo,           Norway      (DALTON; ABACUS, ERI, DFT modules, London, and much more)
  Alf Christian Hennum,     University of Oslo,           Norway      (Parity violation)
  Hinne Hettema,            University of Auckland,       New Zealand (quadratic response in RESPONS; SIRIUS supersymmetry)
  Eirik Hjertenaes,         NTNU,                         Norway      (Cholesky decomposition)
  Pi A. B. Haase,           University of Copenhagen,     Denmark     (Triplet AO-SOPPA)
  Maria Francesca Iozzi,    University of Oslo,           Norway      (RPA)
  Brano Jansik              Technical Univ. of Ostrava    Czech Rep.  (DFT cubic response)
  Hans Joergen Aa. Jensen,  Univ. of Southern Denmark,    Denmark     (DALTON; SIRIUS, RESPONS, ABACUS modules, London, and much more)
  Dan Jonsson,              UiT The Arctic U. of Norway,  Norway      (cubic response in RESPONS module)
  Poul Joergensen,          Aarhus University,            Denmark     (RESPONS, ABACUS, and CC modules)
  Maciej Kaminski,          University of Warsaw,         Poland      (CPPh in RESPONS)
  Joanna Kauczor,           Linkoeping University,        Sweden      (Complex polarization propagator (CPP) module)
  Sheela Kirpekar,          Univ. of Southern Denmark,    Denmark     (Mass-velocity & Darwin integrals)
  Wim Klopper,              KIT Karlsruhe,                Germany     (R12 code in CC, SIRIUS, and ABACUS modules)
  Stefan Knecht,            ETH Zurich,                   Switzerland (Parallel CI and MCSCF)
  Rika Kobayashi,           Australian National Univ.,    Australia   (DIIS in CC, London in MCSCF)
  Henrik Koch,              NTNU,                         Norway      (CC module, Cholesky decomposition)
  Jacob Kongsted,           Univ. of Southern Denmark,    Denmark     (Polarizable embedding model, QM/MM)
  Andrea Ligabue,           University of Modena,         Italy       (CTOCD, AOSOPPA)
  Nanna H. List             Univ. of Southern Denmark,    Denmark     (Polarizable embedding model)
  Ola B. Lutnaes,           University of Oslo,           Norway      (DFT Hessian)
  Juan I. Melo,             University of Buenos Aires,   Argentina   (LRESC, Relativistic Effects on NMR Shieldings)
  Kurt V. Mikkelsen,        University of Copenhagen,     Denmark     (MC-SCRF and QM/MM)
  Rolf H. Myhre,            NTNU,                         Norway      (Cholesky, subsystems and ECC2)
  Christian Neiss,          Univ. Erlangen-Nuernberg,     Germany     (CCSD(R12))
  Christian B. Nielsen,     University of Copenhagen,     Denmark     (QM/MM)
  Patrick Norman,           Linkoeping University,        Sweden      (Cubic response and complex frequency response in RESPONS)
  Jeppe Olsen,              Aarhus University,            Denmark     (SIRIUS CI/density modules)
  Jogvan Magnus H. Olsen,   Univ. of Southern Denmark,    Denmark     (Polarizable embedding model, QM/MM)
  Anders Osted,             Copenhagen University,        Denmark     (QM/MM)
  Martin J. Packer,         University of Sheffield,      UK          (SOPPA)
  Filip Pawlowski,          Kazimierz Wielki University,  Poland      (CC3)
  Morten N. Pedersen,       Univ. of Southern Denmark,    Denmark     (Polarizable embedding model)
  Thomas B. Pedersen,       University of Oslo,           Norway      (Cholesky decomposition)
  Patricio F. Provasi,      University of Northeastern,   Argentina   (Analysis of coupling constants in localized orbitals)
  Zilvinas Rinkevicius,     KTH Stockholm,                Sweden      (open-shell DFT, ESR)
  Elias Rudberg,            KTH Stockholm,                Sweden      (DFT grid and basis info)
  Torgeir A. Ruden,         University of Oslo,           Norway      (Numerical derivatives in ABACUS)
  Kenneth Ruud,             UiT The Arctic U. of Norway,  Norway      (DALTON; ABACUS magnetic properties and much more)
  Pawel Salek,              KTH Stockholm,                Sweden      (DALTON; DFT code)
  Claire C. M. Samson       University of Karlsruhe       Germany     (Boys localization, r12 integrals in ERI)
  Alfredo Sanchez de Meras, University of Valencia,       Spain       (CC module, Cholesky decomposition)
  Trond Saue,               Paul Sabatier University,     France      (direct Fock matrix construction)
  Stephan P. A. Sauer,      University of Copenhagen,     Denmark     (SOPPA(CCSD), SOPPA prop., AOSOPPA, vibrational g-factors)
  Bernd Schimmelpfennig,    Forschungszentrum Karlsruhe,  Germany     (AMFI module)
  Kristian Sneskov,         Aarhus University,            Denmark     (Polarizable embedding model, QM/MM)
  Arnfinn H. Steindal,      UiT The Arctic U. of Norway,  Norway      (parallel QM/MM, Polarizable embedding model)
  Casper Steinmann,         Univ. of Southern Denmark,    Denmark     (QFIT, Polarizable embedding model)
  K. O. Sylvester-Hvid,     University of Copenhagen,     Denmark     (MC-SCRF)
  Peter R. Taylor,          VLSCI/Univ. of Melbourne,     Australia   (Symmetry handling ABACUS, integral transformation)
  Andrew M. Teale,          University of Nottingham,     England     (DFT-AC, DFT-D)
  David P. Tew,             University of Bristol,        England     (CCSD(R12))
  Olav Vahtras,             KTH Stockholm,                Sweden      (triplet response, spin-orbit, ESR, TDDFT, open-shell DFT)
  David J. Wilson,          La Trobe University,          Australia   (DFT Hessian and DFT magnetizabilities)
  Hans Agren,               KTH Stockholm,                Sweden      (SIRIUS module, RESPONS, MC-SCRF solvation model)
 --------------------------------------------------------------------------------

     Date and time (Linux)  : Sat Dec 22 15:38:08 2018
     Host name              : n-62-29-11                              

 * Work memory size             :  1280000000 =  9.537 gigabytes.

 * Directories for basis set searches:
   1) /zhome/37/3/129401/NH3NH4/CCSD/AIMD_SAMPLING/nh3_4h2o_nd
   2) /zhome/9a/4/124800/source/dalton/build-mlcc/basis


Compilation information
-----------------------

 Who compiled             | rfaber
 Host                     | hpclogin1
 System                   | Linux-2.6.32-696.1.1.el6.x86_64
 CMake generator          | Unix Makefiles
 Processor                | x86_64
 64-bit integers          | ON
 MPI                      | OFF
 Fortran compiler         | /opt/intel/2016update2/compilers_and_libraries_201
                          | 6.2.181/linux/bin/intel64/ifort
 Fortran compiler version | ifort (IFORT) 16.0.2 20160204
 C compiler               | /opt/intel/2016update2/compilers_and_libraries_201
                          | 6.2.181/linux/bin/intel64/icc
 C compiler version       | icc (ICC) 16.0.2 20160204
 C++ compiler             | /opt/intel/2016update2/compilers_and_libraries_201
                          | 6.2.181/linux/bin/intel64/icpc
 C++ compiler version     | icpc (ICC) 16.0.2 20160204
 Static linking           | OFF
 Last Git revision        | bb4d1599ca5680a9f3980451fc8bbefdba436d59
 Git branch               | mlcc
 Configuration time       | 2017-06-13 16:11:03.928841


   Content of the .dal input file
 ----------------------------------

**DALTON
.RUN WAVE FUNCTIONS
*QMMM
.QMMM
**INTEGRALS
.DIPLEN
**WAVE FUNCTIONS
.CC
*PRINT
!To check the origin of excit
.PRINTL
   0 11
*SCF INP
.THRESH
1.0D-7
*CC INP
.CCSD
.THRLEQ
 1.0D-9
.THRENR
 1.0D-10
.FROIMP
4
0
.PRINT
 1
.MAX IT
 1200
.MAXRED
 1200
.MXLRV
1199
*CCSLV
.CCMM
.MXSLIT
200
.MXINIT
4 5
*CCEXCI
.NCCEXC
 15
.CVSEPARA
1
1
*CCLRSD
.DIPOLE
**END OF DALTON INPUT


   Content of the .mol file
 ----------------------------

ATOMBASIS


Atomtypes=4 Charge=0 Nosymm Angstrom
   7.00000    1    Basis=6-311G**
N          0.000000        0.000000        0.000000
   1.00000    3    Basis=6-311G**
H          0.040626        1.018208       -0.121604
H          0.684611       -0.273099        0.682028
H          0.333655       -0.326298       -0.923958
   8.00000    4    Basis=6-311G**
O          1.677587        0.361500        2.342915
O          1.333527        2.661609       -1.077883
O         -2.426342       -1.309973        0.333204
O          0.652796       -1.209139       -2.873912
   1.00000    8    Basis=6-311G**
H          2.315228        0.801326        1.610876
H          2.179815       -0.267443        2.864062
H          1.137228        2.517883       -2.024563
H          1.593677        3.591673       -1.071506
H         -2.641745       -1.567858       -0.608828
H         -1.568739       -0.697082        0.214493
H          0.812334       -2.056366       -2.440920
H          1.459947       -0.678240       -2.782613


       *******************************************************************
       *********** Output from DALTON general input processing ***********
       *******************************************************************

 --------------------------------------------------------------------------------
   Overall default print level:    0
   Print level for DALTON.STAT:    1

    HERMIT 1- and 2-electron integral sections will be executed
    "Old" integral transformation used (limited to max 255 basis functions)
    Wave function sections will be executed (SIRIUS module)
 --------------------------------------------------------------------------------


 Changes of defaults for *QMMM  :
 --------------------------------

 +------------------+
 |  WORD: | CHANGE: |
 +------------------+
 |   QMMM |       T |
 +------------------+
 


   ****************************************************************************
   *************** Output of molecule and basis set information ***************
   ****************************************************************************


    The two title cards from your ".mol" input:
    ------------------------------------------------------------------------
 1:                                                                         
 2:                                                                         
    ------------------------------------------------------------------------

  Coordinates are entered in Angstrom and converted to atomic units.
          - Conversion factor : 1 bohr = 0.52917721 A

  Atomic type no.    1
  --------------------
  Nuclear charge:   7.00000
  Number of symmetry independent centers:    1
  Number of basis sets to read;    2
  The basis set is "6-311G**" from the basis set library.
  Basis set file used for this atomic type with Z =   7 :
     "/zhome/9a/4/124800/source/dalton/build-mlcc/basis/6-311G**"

  Info about the basis set file: your basis has no documentation.
  Basis set: 6-311G**                                                                        

  Atomic type no.    2
  --------------------
  Nuclear charge:   1.00000
  Number of symmetry independent centers:    3
  Number of basis sets to read;    2
  The basis set is "6-311G**" from the basis set library.
  Basis set file used for this atomic type with Z =   1 :
     "/zhome/9a/4/124800/source/dalton/build-mlcc/basis/6-311G**"

  Info about the basis set file: your basis has no documentation.
  Basis set: 6-311G**                                                                        

  Atomic type no.    3
  --------------------
  Nuclear charge:   8.00000
  Number of symmetry independent centers:    4
  Number of basis sets to read;    2
  The basis set is "6-311G**" from the basis set library.
  Basis set file used for this atomic type with Z =   8 :
     "/zhome/9a/4/124800/source/dalton/build-mlcc/basis/6-311G**"

  Info about the basis set file: your basis has no documentation.
  Basis set: 6-311G**                                                                        

  Atomic type no.    4
  --------------------
  Nuclear charge:   1.00000
  Number of symmetry independent centers:    8
  Number of basis sets to read;    2
  The basis set is "6-311G**" from the basis set library.
  Basis set file used for this atomic type with Z =   1 :
     "/zhome/9a/4/124800/source/dalton/build-mlcc/basis/6-311G**"

  Info about the basis set file: your basis has no documentation.
  Basis set: 6-311G**                                                                        


                         SYMGRP: Point group information
                         -------------------------------

@    Point group: C1 


                                 Isotopic Masses
                                 ---------------

                           N          14.003074
                           H           1.007825
                           H           1.007825
                           H           1.007825
                           O          15.994915
                           O          15.994915
                           O          15.994915
                           O          15.994915
                           H           1.007825
                           H           1.007825
                           H           1.007825
                           H           1.007825
                           H           1.007825
                           H           1.007825
                           H           1.007825
                           H           1.007825

                       Total mass:    89.068809 amu
                       Natural abundance:  98.514 %

 Center-of-mass coordinates (a.u.):    0.555683    0.215140   -0.531322


  Atoms and basis sets
  --------------------

  Number of atom types :    4
  Total number of atoms:   16

  label    atoms   charge   prim   cont     basis
  ----------------------------------------------------------------------
  N           1    7.0000    31    18      [11s5p1d|4s3p1d]                                   
  H           3    1.0000     8     6      [5s1p|3s1p]                                        
  O           4    8.0000    31    18      [11s5p1d|4s3p1d]                                   
  H           8    1.0000     8     6      [5s1p|3s1p]                                        
  ----------------------------------------------------------------------
  total:     16   50.0000   243   156
  ----------------------------------------------------------------------
  Spherical harmonic basis used.

  Threshold for neglecting AO integrals:  1.00D-12


  Cartesian Coordinates (a.u.)
  ----------------------------

  Total number of coordinates:   48
  N       :     1  x   0.0000000000    2  y   0.0000000000    3  z   0.0000000000
  H       :     4  x   0.0767720136    5  y   1.9241342583    6  z  -0.2297982557
  H       :     7  x   1.2937272922    8  y  -0.5160823150    9  z   1.2888461296
  H       :    10  x   0.6305165702   11  y  -0.6166138551   12  z  -1.7460275710
  O       :    13  x   3.1701799808   14  y   0.6831359942   15  z   4.4274676841
  O       :    16  x   2.5200008103   17  y   5.0297120618   18  z  -2.0369036648
  O       :    19  x  -4.5851218656   20  y  -2.4754902011   21  z   0.6296643038
  O       :    22  x   1.2336056555   23  y  -2.2849415570   24  z  -5.4309065873
  H       :    25  x   4.3751468369   26  y   1.5142866768   27  z   3.0441144613
  H       :    28  x   4.1192533532   29  y  -0.5053940240   30  z   5.4122927850
  H       :    31  x   2.1490494617   32  y   4.7581092848   33  z  -3.8258695928
  H       :    34  x   3.0116130617   35  y   6.7872783005   36  z  -2.0248528813
  H       :    37  x  -4.9921745421   38  y  -2.9628222229   39  z  -1.1505181772
  H       :    40  x  -2.9644870716   41  y  -1.3172940667   42  z   0.4053330257
  H       :    43  x   1.5350887820   44  y  -3.8859685527   45  z  -4.6126702930
  H       :    46  x   2.7588999870   47  y  -1.2816878470   48  z  -5.2583764818


   Interatomic separations (in Angstrom):
   --------------------------------------

            N           H           H           H           O           O     
            ------      ------      ------      ------      ------      ------
 N     :    0.000000
 H     :    1.026248    0.000000
 H     :    1.004210    1.651670    0.000000
 H     :    1.035130    1.592901    1.644747    0.000000
 O     :    2.904175    3.030637    2.036483    3.598844    0.000000
 O     :    3.166116    2.299311    3.482943    3.154525    4.136513    0.000000
 O     :    2.777443    3.422456    3.297698    3.188363    4.865696    5.648119
 O     :    3.185519    3.593192    3.677213    2.164158    5.543680    4.321088
 H     :    2.932120    2.867462    2.162420    3.409333    1.065793    3.413768
 H     :    3.609151    3.891430    2.645173    4.214364    0.958852    4.983420
 H     :    3.425183    2.659476    3.914087    3.153796    4.900698    0.977442
 H     :    4.072843    3.152301    4.340247    4.118243    4.700992    0.965783
 H     :    3.131719    3.757691    3.795702    3.239411    5.576006    5.823332
 H     :    1.729992    2.375971    2.340072    2.247811    4.023606    4.623223
 H     :    3.293420    3.927819    3.598494    2.350201    5.429532    4.938502
 H     :    3.214715    3.460257    3.573377    2.201589    5.234450    3.751890

            O           O           H           H           H           H     
            ------      ------      ------      ------      ------      ------
 O     :    0.000000
 O     :    4.447117    0.000000
 H     :    5.345326    5.188350    0.000000
 H     :    5.358059    6.011899    1.652598    0.000000
 H     :    5.736774    3.853150    4.189352    5.722210    0.000000
 H     :    6.493065    5.213609    3.937238    5.543016    1.506548    0.000000
 H     :    1.000164    4.014136    5.925513    6.082720    5.742667    6.691310
 H     :    1.060759    3.838706    4.390935    4.610473    4.761473    5.481614
 H     :    4.329190    0.964742    5.180941    5.763079    4.604635    5.863969
 H     :    5.021020    0.970403    4.714167    5.707180    3.300604    4.601948

            H           H           H           H     
            ------      ------      ------      ------
 H     :    0.000000
 H     :    1.608555    0.000000
 H     :    3.940287    3.816855    0.000000
 H     :    4.726588    4.260979    1.560573    0.000000


  Max    interatomic separation is    6.6913 Angstrom (   12.6447 Bohr)
  between atoms   13 and   12, "H     " and "H     ".

  Min HX interatomic separation is    0.9589 Angstrom (    1.8120 Bohr)

  Min YX interatomic separation is    2.7774 Angstrom (    5.2486 Bohr)


  Bond distances (Angstrom):
  --------------------------

                  atom 1     atom 2       distance
                  ------     ------       --------
  bond distance:  H          N            1.026248
  bond distance:  H          N            1.004210
  bond distance:  H          N            1.035130
  bond distance:  H          O            1.065793
  bond distance:  H          O            0.958852
  bond distance:  H          O            0.977442
  bond distance:  H          O            0.965783
  bond distance:  H          O            1.000164
  bond distance:  H          O            1.060759
  bond distance:  H          O            0.964742
  bond distance:  H          O            0.970403


  Bond angles (degrees):
  ----------------------

                  atom 1     atom 2     atom 3         angle
                  ------     ------     ------         -----
  bond angle:     H          N          H            108.863
  bond angle:     H          N          H            101.200
  bond angle:     H          N          H            107.503
  bond angle:     H          O          H            109.307
  bond angle:     H          O          H            101.660
  bond angle:     H          O          H            102.573
  bond angle:     H          O          H            107.498




 Principal moments of inertia (u*A**2) and principal axes
 --------------------------------------------------------

   IA     338.935821          0.657676    0.676830    0.330701
   IB     393.334195         -0.267187   -0.200871    0.942476
   IC     573.292114          0.704325   -0.708203    0.048732


 Rotational constants
 --------------------

               A                   B                   C

           1491.0758           1284.8591            881.5384 MHz
            0.049737            0.042858            0.029405 cm-1


@  Nuclear repulsion energy :  184.608839797634 Hartree


                     .---------------------------------------.
                     | Starting in Integral Section (HERMIT) |
                     `---------------------------------------'



 ***************************************************************************************
 ****************** Output from **INTEGRALS input processing (HERMIT) ******************
 ***************************************************************************************



    *************************************************************************
    ****************** Output from HERMIT input processing ******************
    *************************************************************************


 Default print level:        1

 * Nuclear model: Point charge

 Calculation of one- and two-electron Hamiltonian integrals.

 The following one-electron property integrals are calculated as requested:
          - overlap integrals
          - dipole length integrals

 Center of mass  (bohr):      0.555682689461      0.215140013714     -0.531321564292
 Operator center (bohr):      0.000000000000      0.000000000000      0.000000000000
 Gauge origin    (bohr):      0.000000000000      0.000000000000      0.000000000000
 Dipole origin   (bohr):      0.000000000000      0.000000000000      0.000000000000
 
  *********************************** 
  QMMM electrostatic potential: 
  Multipole order                                    0
  Isotropic polarization  
  *********************************** 
 
  ---------------- 
  QMMM information 
  ---------------- 
 
  MM coordinates in au 
  -------------------- 
     1      7.927645      3.513316     -7.828000
     2      8.049039      2.754068     -9.611381
     3      6.945953      5.030733     -8.374745
     4     10.436842     11.171209      5.988616
     5     12.006246     10.315953      6.384950
     6      9.598323     12.079738      7.344222
     7     -8.228695    -10.038756     11.321249
     8     -9.549954     -9.724332     12.520972
     9     -8.638834     -9.138905      9.699038
    10      7.967267      2.088026     10.617356
    11      9.672198      2.030994      9.793334
    12      7.291646      0.504115      9.944291
    13     -8.229593     -7.602875      6.476793
    14     -9.431062     -7.754773      5.003558
    15     -7.838627     -5.728249      6.387768
    16     -4.722324     -7.703633     -4.194224
    17     -4.562303     -5.872840     -3.967340
    18     -4.492854     -8.632222     -2.595286
    19      6.196544     -0.498360     -5.403589
    20      6.492319     -0.295476     -3.498212
    21      6.415454      1.217945     -6.194813
    22     -4.993760      4.326785     -8.232926
    23     -6.049556      4.050766     -6.783618
    24     -5.676737      5.859003     -9.155302
    25      5.322761    -10.885085    -10.626824
    26      5.874378    -10.345219     -8.853329
    27      3.581948    -10.313390    -10.959986
    28    -11.598782     -0.527927     -4.016089
    29    -13.330880      0.017540     -4.388316
    30    -11.321652     -1.870203     -5.214790
    31     -9.617614     -8.915340     -6.656791
    32     -8.031247     -8.146084     -6.035224
    33    -10.768568     -8.759927     -5.187674
    34     -7.022508      8.800167     -0.025538
    35     -5.384094      9.467286     -0.298735
    36     -8.103718      9.984759      0.894995
    37     -7.362668     -1.846535     -9.710271
    38     -7.108855     -0.423321    -10.949026
    39     -6.263885     -3.239894    -10.306334
    40     10.803880     -4.138347      0.389234
    41     10.625029     -2.920164     -0.973502
    42      9.104281     -4.453366      1.132704
    43     10.960655      3.186887      1.539785
    44     10.344816      4.791066      2.268662
    45     12.033426      3.481114      0.039871
    46     -4.379323     -1.536718     -4.852877
    47     -2.688691     -1.249428     -5.316382
    48     -5.489159     -1.247457     -6.298814
    49     -9.848801      4.495955      9.851388
    50     -8.277409      3.517438     10.324256
    51    -10.440708      5.338854     11.456771
    52    -10.887428      0.804339      6.253724
    53    -10.897232      1.726577      4.534415
    54    -10.909559      2.029286      7.647699
    55      7.601076     -8.795040      8.874655
    56      8.207105     -7.108375      9.221109
    57      6.965377     -9.574239     10.453079
    58     -4.764491      8.364982    -11.155233
    59     -4.051805      7.305944    -12.592570
    60     -5.819886      9.690276    -11.896227
    61      4.691555      4.999728      7.214167
    62      3.707945      3.791053      6.214612
    63      5.756722      4.080964      8.431542
    64      0.887693      3.731559     10.984925
    65      2.391095      4.575566     10.257243
    66      1.236140      2.032988     11.450913
    67      5.971848     -9.604858     -5.433516
    68      4.510852     -9.058890     -4.327717
    69      7.230597     -9.033809     -4.184959
    70      0.311383    -10.096338    -11.730566
    71     -0.464385    -10.877407    -10.192886
    72      0.031177    -11.294657    -13.239928
    73     -5.573222      1.726299     10.784586
    74     -4.805647      2.428190     12.451366
    75     -4.243954      0.893884      9.902174
    76     -6.796307     -2.784880      5.430147
    77     -8.351072     -1.588126      5.495312
    78     -6.362396     -2.683139      3.595143
    79      1.863249     11.517306      2.914285
    80      2.958659     13.019157      3.419866
    81      3.012097     10.764254      1.634783
    82      5.293159      6.885219    -10.427666
    83      3.552685      6.683187     -9.655784
    84      5.563870      8.729044    -10.687297
    85      3.995678     -7.298778      5.280008
    86      5.394510     -7.718577      6.474935
    87      2.629624     -6.330864      6.081339
    88      1.052364     -1.396292    -10.975994
    89      1.026210     -3.059032    -11.938362
    90      1.159978     -1.720358     -9.169794
    91     10.194910      8.612397     -2.723649
    92     11.149367      9.856600     -3.620237
    93     10.549774      7.090421     -3.771527
    94      5.711476      1.651715      0.169074
    95      4.637550      3.045057     -0.721346
    96      7.494503      2.435995      0.363506
    97      2.637889     -6.942251     -2.647083
    98      1.017892     -7.594526     -1.945360
    99      3.446314     -6.303267     -1.138705
   100     -2.541050     11.673524     -7.508022
   101     -3.513481     10.701606     -8.707652
   102     -3.432100     13.306573     -7.304793
   103     -5.181884     -6.598194    -10.009082
   104     -6.489807     -7.506383    -11.052076
   105     -3.529961     -7.032448    -10.825837
   106    -11.632107     -4.161366     -8.162494
   107    -10.341231     -3.416683     -9.294115
   108    -10.954385     -5.818601     -7.645577
   109     -1.771958    -10.031948     -0.386585
   110     -0.773949    -10.427743      1.099023
   111     -1.376664    -11.393973     -1.603402
   112      0.881022     -4.918738      8.755883
   113     -0.354104     -3.537169      8.143750
   114     -0.132107     -6.365265      8.903369
   115     -8.710575      9.367966     -5.530406
   116     -8.806543     11.060737     -6.045595
   117     -8.422288      9.237760     -3.696204
   118     -9.561837      4.115744     -3.804009
   119     -9.879802      2.235007     -4.188710
   120     -8.093427      4.109055     -2.553105
   121      5.494150      8.933552     -0.208424
   122      6.982969      9.249072     -1.242236
   123      6.240029      8.356947      1.372425
   124     -2.620406      7.824853     -3.632923
   125     -3.417808      6.175134     -3.655889
   126     -3.995578      8.768140     -4.524692
   127      0.875792      6.130404     -7.215194
   128     -0.167879      4.941382     -8.175855
   129     -0.494025      7.128066     -6.171415
   130     -4.860810      2.978957     -1.524417
   131     -5.146554      1.215111     -1.642939
   132     -4.569692      3.261622      0.257354
   133     -1.947242     -0.832564      6.949874
   134     -3.318626     -1.153806      5.781067
   135     -0.516870     -0.017136      5.987898
   136      7.855425      7.191655      4.119002
   137      8.879814      8.417749      5.081158
   138      6.811382      6.243362      5.281607
   139     -5.346538      4.375338      3.863802
   140     -4.161527      4.519896      5.319122
   141     -6.371493      5.933447      4.193811
   142     10.077531     -3.666879      6.094954
   143     11.335496     -2.337708      6.665484
   144     10.504587     -3.955992      4.334461
   145      5.261349     -4.976235      1.292142
   146      4.873643     -3.193420      0.990101
   147      4.654745     -5.594946      3.049517
   148    -11.279879      6.496468     -9.065948
   149    -10.196057      7.076363     -7.717821
   150    -12.499448      5.389310     -8.322860
   151     11.607747     11.596146      1.292293
   152     10.922332     11.484555      3.045666
   153     11.021098     10.024048      0.517828
   154      7.124438     -4.783910    -10.173469
   155      8.672788     -3.994688     -9.451851
   156      6.477337     -5.348267     -8.564367
   157      5.713381     -1.837362      8.296920
   158      7.064649     -2.742648      7.446859
   159      4.799243     -2.978853      9.482024
   160     -3.711953    -10.686985      6.106561
   161     -5.099135     -9.458576      6.370199
   162     -4.218838    -11.263505      4.426642
   163     -9.108312      8.011341      6.189798
   164     -9.274067      6.619110      7.438731
   165     -7.480649      8.748786      6.712568
   166     -1.212256     -5.930172      3.773626
   167     -2.187596     -7.153543      4.698940
   168     -2.391634     -4.882586      2.801672
   169     -2.442456      6.178779      7.712394
   170     -1.222779      7.578665      7.389296
   171     -1.293686      4.913604      8.435989
   172      1.272041      9.491274      7.831892
   173      1.704501     10.061654      6.001530
   174      2.823933      8.490316      8.214520
   175     10.767676     -8.467989     -2.316012
   176     11.197740     -9.568177     -0.807505
   177     11.068872     -6.771828     -1.520687
 
  MM charges 
  ---------- 
     1     -0.674440
     2      0.337220
     3      0.337220
     4     -0.674440
     5      0.337220
     6      0.337220
     7     -0.674440
     8      0.337220
     9      0.337220
    10     -0.674440
    11      0.337220
    12      0.337220
    13     -0.674440
    14      0.337220
    15      0.337220
    16     -0.674440
    17      0.337220
    18      0.337220
    19     -0.674440
    20      0.337220
    21      0.337220
    22     -0.674440
    23      0.337220
    24      0.337220
    25     -0.674440
    26      0.337220
    27      0.337220
    28     -0.674440
    29      0.337220
    30      0.337220
    31     -0.674440
    32      0.337220
    33      0.337220
    34     -0.674440
    35      0.337220
    36      0.337220
    37     -0.674440
    38      0.337220
    39      0.337220
    40     -0.674440
    41      0.337220
    42      0.337220
    43     -0.674440
    44      0.337220
    45      0.337220
    46     -0.674440
    47      0.337220
    48      0.337220
    49     -0.674440
    50      0.337220
    51      0.337220
    52     -0.674440
    53      0.337220
    54      0.337220
    55     -0.674440
    56      0.337220
    57      0.337220
    58     -0.674440
    59      0.337220
    60      0.337220
    61     -0.674440
    62      0.337220
    63      0.337220
    64     -0.674440
    65      0.337220
    66      0.337220
    67     -0.674440
    68      0.337220
    69      0.337220
    70     -0.674440
    71      0.337220
    72      0.337220
    73     -0.674440
    74      0.337220
    75      0.337220
    76     -0.674440
    77      0.337220
    78      0.337220
    79     -0.674440
    80      0.337220
    81      0.337220
    82     -0.674440
    83      0.337220
    84      0.337220
    85     -0.674440
    86      0.337220
    87      0.337220
    88     -0.674440
    89      0.337220
    90      0.337220
    91     -0.674440
    92      0.337220
    93      0.337220
    94     -0.674440
    95      0.337220
    96      0.337220
    97     -0.674440
    98      0.337220
    99      0.337220
   100     -0.674440
   101      0.337220
   102      0.337220
   103     -0.674440
   104      0.337220
   105      0.337220
   106     -0.674440
   107      0.337220
   108      0.337220
   109     -0.674440
   110      0.337220
   111      0.337220
   112     -0.674440
   113      0.337220
   114      0.337220
   115     -0.674440
   116      0.337220
   117      0.337220
   118     -0.674440
   119      0.337220
   120      0.337220
   121     -0.674440
   122      0.337220
   123      0.337220
   124     -0.674440
   125      0.337220
   126      0.337220
   127     -0.674440
   128      0.337220
   129      0.337220
   130     -0.674440
   131      0.337220
   132      0.337220
   133     -0.674440
   134      0.337220
   135      0.337220
   136     -0.674440
   137      0.337220
   138      0.337220
   139     -0.674440
   140      0.337220
   141      0.337220
   142     -0.674440
   143      0.337220
   144      0.337220
   145     -0.674440
   146      0.337220
   147      0.337220
   148     -0.674440
   149      0.337220
   150      0.337220
   151     -0.674440
   152      0.337220
   153      0.337220
   154     -0.674440
   155      0.337220
   156      0.337220
   157     -0.674440
   158      0.337220
   159      0.337220
   160     -0.674440
   161      0.337220
   162      0.337220
   163     -0.674440
   164      0.337220
   165      0.337220
   166     -0.674440
   167      0.337220
   168      0.337220
   169     -0.674440
   170      0.337220
   171      0.337220
   172     -0.674440
   173      0.337220
   174      0.337220
   175     -0.674440
   176      0.337220
   177      0.337220
 
  MM isotropic polarizabilities in au 
  ----------------------------------- 
     1      5.739350
     2      2.308390
     3      2.308390
     4      5.739350
     5      2.308390
     6      2.308390
     7      5.739350
     8      2.308390
     9      2.308390
    10      5.739350
    11      2.308390
    12      2.308390
    13      5.739350
    14      2.308390
    15      2.308390
    16      5.739350
    17      2.308390
    18      2.308390
    19      5.739350
    20      2.308390
    21      2.308390
    22      5.739350
    23      2.308390
    24      2.308390
    25      5.739350
    26      2.308390
    27      2.308390
    28      5.739350
    29      2.308390
    30      2.308390
    31      5.739350
    32      2.308390
    33      2.308390
    34      5.739350
    35      2.308390
    36      2.308390
    37      5.739350
    38      2.308390
    39      2.308390
    40      5.739350
    41      2.308390
    42      2.308390
    43      5.739350
    44      2.308390
    45      2.308390
    46      5.739350
    47      2.308390
    48      2.308390
    49      5.739350
    50      2.308390
    51      2.308390
    52      5.739350
    53      2.308390
    54      2.308390
    55      5.739350
    56      2.308390
    57      2.308390
    58      5.739350
    59      2.308390
    60      2.308390
    61      5.739350
    62      2.308390
    63      2.308390
    64      5.739350
    65      2.308390
    66      2.308390
    67      5.739350
    68      2.308390
    69      2.308390
    70      5.739350
    71      2.308390
    72      2.308390
    73      5.739350
    74      2.308390
    75      2.308390
    76      5.739350
    77      2.308390
    78      2.308390
    79      5.739350
    80      2.308390
    81      2.308390
    82      5.739350
    83      2.308390
    84      2.308390
    85      5.739350
    86      2.308390
    87      2.308390
    88      5.739350
    89      2.308390
    90      2.308390
    91      5.739350
    92      2.308390
    93      2.308390
    94      5.739350
    95      2.308390
    96      2.308390
    97      5.739350
    98      2.308390
    99      2.308390
   100      5.739350
   101      2.308390
   102      2.308390
   103      5.739350
   104      2.308390
   105      2.308390
   106      5.739350
   107      2.308390
   108      2.308390
   109      5.739350
   110      2.308390
   111      2.308390
   112      5.739350
   113      2.308390
   114      2.308390
   115      5.739350
   116      2.308390
   117      2.308390
   118      5.739350
   119      2.308390
   120      2.308390
   121      5.739350
   122      2.308390
   123      2.308390
   124      5.739350
   125      2.308390
   126      2.308390
   127      5.739350
   128      2.308390
   129      2.308390
   130      5.739350
   131      2.308390
   132      2.308390
   133      5.739350
   134      2.308390
   135      2.308390
   136      5.739350
   137      2.308390
   138      2.308390
   139      5.739350
   140      2.308390
   141      2.308390
   142      5.739350
   143      2.308390
   144      2.308390
   145      5.739350
   146      2.308390
   147      2.308390
   148      5.739350
   149      2.308390
   150      2.308390
   151      5.739350
   152      2.308390
   153      2.308390
   154      5.739350
   155      2.308390
   156      2.308390
   157      5.739350
   158      2.308390
   159      2.308390
   160      5.739350
   161      2.308390
   162      2.308390
   163      5.739350
   164      2.308390
   165      2.308390
   166      5.739350
   167      2.308390
   168      2.308390
   169      5.739350
   170      2.308390
   171      2.308390
   172      5.739350
   173      2.308390
   174      2.308390
   175      5.739350
   176      2.308390
   177      2.308390


     ************************************************************************
     ************************** Output from HERINT **************************
     ************************************************************************



                      Nuclear contribution to dipole moments
                      --------------------------------------

                 au               Debye          C m (/(10**-30)

      x     30.70272239        78.03853128       260.30852077
      y     11.51727602        29.27399380        97.64753254
      z    -27.98295297       -71.12556738      -237.24935528


  Time used in HUCKEL     is       0.36 seconds
  Time used in OVERLAP    is       0.22 seconds
  Time used in POPOVLP    is       0.64 seconds
  Time used in DIPLEN     is       0.28 seconds
  Time used in QUADRUP    is       0.58 seconds
  Time used in KINENE     is       0.27 seconds

 Threshold for neglecting two-electron integrals:  1.00D-12
 HERMIT - Number of two-electron integrals written:    29960379 ( 40.0% )
 HERMIT - Megabytes written:                            343.060

  Time used in TWOINT     is      15.16 seconds
  Total CPU  time used in HERMIT:  17.58 seconds
  Total wall time used in HERMIT:   6.79 seconds


                        .----------------------------------.
                        | End of Integral Section (HERMIT) |
                        `----------------------------------'



                   .--------------------------------------------.
                   | Starting in Wave Function Section (SIRIUS) |
                   `--------------------------------------------'

NCCEXCI for singlet:   15
 CCSD_INPUT: core-val requested
 Requested number of core orbs per sym
                     1
 Indices of requested core orbs
                     1

 *** Output from Huckel module :

     Using EWMO model:          T
     Using EHT  model:          F
     Number of Huckel orbitals each symmetry:   36

 EWMO - Energy Weighted Maximum Overlap - is a Huckel type method,
        which normally is better than Extended Huckel Theory.
 Reference: Linderberg and Ohrn, Propagators in Quantum Chemistry (Wiley, 1973)

 Huckel EWMO eigenvalues for symmetry :  1
          -20.684848     -20.684747     -20.684279     -20.683976     -15.673906
           -1.731155      -1.605291      -1.602019      -1.580332      -1.439382
           -0.809245      -0.805530      -0.781499      -0.766741      -0.740811
           -0.735302      -0.701619      -0.682774      -0.677360      -0.669095
           -0.616194      -0.615244      -0.595750      -0.573876      -0.510212
           -0.261661      -0.243290      -0.231492      -0.230025      -0.183341
           -0.180168      -0.173398      -0.170523      -0.159529      -0.150493
           -0.140694

 **********************************************************************
 *SIRIUS* a direct, restricted step, second order MCSCF program       *
 **********************************************************************

 
     Date and time (Linux)  : Sat Dec 22 15:38:16 2018
     Host name              : n-62-29-11                              

 Title lines from ".mol" input file:
                                                                             
                                                                             

 Print level on unit LUPRI =   2 is   0
 Print level on unit LUW4  =   2 is  11

@    (Integral direct) CC calculation.

@    This is a combination run starting with
@              a restricted, closed shell Hartree-Fock calculation


 Initial molecular orbitals are obtained according to
 ".MOSTART EWMO  " input option

@    QM part is embedded in an environment :

@         Model: QMMM

     Wave function specification
     ============================

     For the specification of the Coupled Cluster: see later.

@    Wave function type        --- CC ---
@    Number of closed shell electrons          50
@    Number of electrons in active shells       0
@    Total charge of the molecule               0

@    Spin multiplicity and 2 M_S                1         0
@    Total number of symmetries                 1 (point group: C1 )
@    Reference state symmetry                   1 (irrep name : A  )

     Orbital specifications
     ======================
@    Abelian symmetry species          All |    1
@                                          |  A  
                                       --- |  ---
@    Occupied SCF orbitals              25 |   25
@    Secondary orbitals                131 |  131
@    Total number of orbitals          156 |  156
@    Number of basis functions         156 |  156

     Optimization information
     ========================
@    Number of configurations                 1
@    Number of orbital rotations           3275
     ------------------------------------------
@    Total number of variables             3276

     Maximum number of Fock   iterations      0
     Maximum number of DIIS   iterations     60
     Maximum number of QC-SCF iterations     60
     Threshold for SCF convergence     1.00D-07


 Changes of defaults for CC:
 ---------------------------


 -Implicit frozen core calculation
 -Excitation energies calculated
 -One-photon absorption strengths will be calculated
 -Oscillator strengths calculated
  
* Read MO coefficients from SIRIUS.RST with label "NEWORB  " and header info: 22Dec18  REORTHO 


 ***********************************************
 ***** DIIS acceleration of SCF iterations *****
 ***********************************************

 C1-DIIS algorithm; max error vectors =    8
 -----------------------------------------------------------------------------

 *** DIIS iteration number    1
 RDSUPM called. NFMAT, ISYMDM(1:NFMAT)                     1
                     1

Calculating AOSUPINT
     (Precalculated two-electron integrals are transformed to P-supermatrix elements.
      Threshold for discarding integrals :  1.00D-12 )
  CPU  time used in FORMSUP    is   7.54 seconds
  WALL time used in FORMSUP    is  11.02 seconds

 ITDIIS, energy, error norm, change in energy, scr.thr., difden:
@ DIIS iter.   1    -359.879613777        3.81941D+00   -3.60D+02  -20    F

 (DIIS_RED) Control Parameters C2DIIS =         F NEVC =    1


 (DIIS_RED) B matrix:

               Column   1
       1      14.58790830
    ==== End of matrix output ====

 DIIS C vector; C2DIIS = F, LAMBDA = -1.46D+01
    1.000000
* Read MO coefficients from SIRIUS.RST with label "NEWORB  " and header info: 22Dec18  DIIS   1
      Virial theorem: -V/T =      1.997731
@      MULPOP N      -0.36; H       0.16; H       0.17; H       0.16; O      -0.62; O      -0.61; O      -0.86; O      -0.63; H       0.33; H       0.32; 
@             H       0.33; H       0.31; H       0.32; H       0.32; H       0.34; H       0.34; 
   1  Level shift: doubly occupied orbital energies shifted by -2.00D-01

 DIIS Fock eigenvalues in symmetry 1
      -20.73604      -20.73584      -20.72176      -20.50739      -15.97932
       -1.56438       -1.55969       -1.55245       -1.44881       -1.43178
       -0.96310       -0.94094       -0.93811       -0.93350       -0.92710
       -0.85850       -0.81495       -0.80373       -0.78939       -0.77398
       -0.76123       -0.75209       -0.74576       -0.68087       -0.64336
        0.09888        0.13806        0.16377        0.19893        0.22665
        0.23514        0.24512        0.27109        0.29467        0.31569
        0.33341        0.42056        0.43033        0.48854        0.50232
        0.52974        0.54576        0.58133        0.59265        0.59593
        0.61664        0.64465        0.80930        0.88586        0.89541
        0.94543        0.96172        0.97938        0.99723        1.00805
        1.03225        1.05927        1.08422        1.09519        1.10609
        1.14098        1.17033        1.22904        1.24084        1.26580
        1.31765        1.35317        1.38759        1.42212        1.44315
        1.45416        1.46224        1.47241        1.51675        1.51844
        1.53565        1.61779        1.64674        1.66256        1.69343
        1.70272        1.74604        1.79214        1.81505        1.85085
        1.86014        1.89345        1.93657        2.02132        2.11041
        2.13286        2.18167        2.19724        2.23174        2.25966
        2.27418        2.32962        2.33275        2.44998        2.46249
        2.54386        2.59554        2.61105        2.63158        2.65647
        2.70039        2.72708        2.73891        2.77975        2.81210
        2.84715        2.88234        2.96019        3.06276        3.31464
        3.33526        3.35366        3.43861        3.46165        3.47651
        3.47730        3.50598        3.50869        3.55899        3.56551
        3.65811        3.67370        3.69334        3.94324        3.95854
        4.00248        4.04604        4.14952        4.19334        4.21125
        4.24051        4.50116        4.96101        5.08742        5.30954
        5.36714        5.45225        5.47923        5.67351        5.73610
        5.78292        5.81691        6.05374        6.08548        6.15166
        6.16169       36.79856       51.52414       51.54620       51.56856
       51.76521
 Time used in FCKEIG, thr_jaco:   4.74D-01  4.80D-02  1.67D-04
 CPU and wall times used in FCKEIG, THR_FCKEIG:   4.74D-01  4.80D-02  3.82D-02
 -----------------------------------------------------------------------------

 *** DIIS iteration number    2
 RDSUPM called. NFMAT, ISYMDM(1:NFMAT)                     1
                     1

 ITDIIS, energy, error norm, change in energy, scr.thr., difden:
@ DIIS iter.   2    -360.677009267        9.54847D-01   -7.97D-01  -20    F

 (DIIS_RED) Control Parameters C2DIIS =         F NEVC =    2


 (DIIS_RED) B matrix:

               Column   1     Column   2
       1      14.58790830
       2       0.84851478     0.91173357
    ==== End of matrix output ====

 DIIS C vector; C2DIIS = F, LAMBDA = -9.11D-01
    0.004580    0.995420
* Read MO coefficients from SIRIUS.RST with label "NEWORB  " and header info: 22Dec18  DIIS   2
      Virial theorem: -V/T =      2.004282
@      MULPOP N      -0.66; H       0.24; H       0.22; H       0.20; O      -0.60; O      -0.56; O      -0.67; O      -0.56; H       0.34; H       0.29; 
@             H       0.29; H       0.30; H       0.24; H       0.32; H       0.30; H       0.31; 
   2  Level shift: doubly occupied orbital energies shifted by -5.00D-02

 DIIS Fock eigenvalues in symmetry 1
      -20.69260      -20.66275      -20.61979      -20.61016      -15.48130
       -1.40881       -1.39488       -1.38527       -1.37827       -1.15762
       -0.77562       -0.75545       -0.75019       -0.73512       -0.68017
       -0.66298       -0.65432       -0.64933       -0.63610       -0.62888
       -0.59931       -0.58024       -0.57808       -0.55775       -0.46408
        0.14013        0.17069        0.18930        0.21671        0.24922
        0.26198        0.26948        0.30956        0.32366        0.35106
        0.37637        0.47753        0.50355        0.52442        0.53717
        0.55951        0.58381        0.61833        0.61888        0.63742
        0.65277        0.71199        0.88561        0.94758        0.95169
        0.96554        0.98057        0.98423        1.01855        1.02990
        1.05016        1.09347        1.10920        1.12056        1.12917
        1.14695        1.17256        1.27836        1.31534        1.33358
        1.37262        1.38962        1.43431        1.47403        1.48010
        1.51148        1.52709        1.53857        1.54728        1.57253
        1.57697        1.62125        1.70589        1.71572        1.72857
        1.76049        1.82574        1.85742        1.86902        1.91640
        1.93694        1.96468        2.01329        2.08866        2.17211
        2.23320        2.24253        2.27381        2.28736        2.30012
        2.32947        2.40039        2.40419        2.49469        2.56831
        2.60984        2.64760        2.66378        2.70305        2.73494
        2.78641        2.78983        2.80679        2.86039        2.87561
        2.97651        3.02889        3.08605        3.18904        3.35540
        3.41325        3.45664        3.46377        3.47109        3.49167
        3.50910        3.51598        3.53973        3.54495        3.58507
        3.61300        3.69603        3.71417        3.92664        3.96405
        3.98615        4.08184        4.15338        4.16536        4.22493
        4.26854        4.66419        5.17028        5.27429        5.28477
        5.32476        5.37727        5.49798        5.65730        5.66370
        5.74888        5.79612        6.01779        6.05608        6.11616
        6.18099       37.14062       51.43618       51.45035       51.51499
       51.53275
 Time used in FCKEIG, thr_jaco:   2.99D-01  3.00D-02  4.17D-05
 CPU and wall times used in FCKEIG, THR_FCKEIG:   2.99D-01  3.00D-02  9.55D-03
 -----------------------------------------------------------------------------

 *** DIIS iteration number    3
 RDSUPM called. NFMAT, ISYMDM(1:NFMAT)                     1
                     1

 ITDIIS, energy, error norm, change in energy, scr.thr., difden:
@ DIIS iter.   3    -360.738068768        3.69630D-01   -6.11D-02  -20    F

 (DIIS_RED) Control Parameters C2DIIS =         F NEVC =    3


 (DIIS_RED) B matrix:

               Column   1     Column   2     Column   3
       1      14.58790830
       2       0.84851478     0.91173357
       3       0.68111959     0.02876218     0.13662631
    ==== End of matrix output ====

 DIIS C vector; C2DIIS = F, LAMBDA = -1.00D-01
   -0.043238    0.120874    0.922365
* Read MO coefficients from SIRIUS.RST with label "NEWORB  " and header info: 22Dec18  DIIS   3
      Virial theorem: -V/T =      2.001641
@      MULPOP N      -0.59; H       0.22; H       0.20; H       0.18; O      -0.67; O      -0.61; O      -0.77; O      -0.61; H       0.38; H       0.32; 
@             H       0.31; H       0.32; H       0.31; H       0.37; H       0.32; H       0.33; 
   3  Level shift: doubly occupied orbital energies shifted by -2.50D-02

 DIIS Fock eigenvalues in symmetry 1
      -20.58912      -20.57051      -20.55661      -20.50689      -15.57920
       -1.36423       -1.36049       -1.34927       -1.29973       -1.16476
       -0.73238       -0.71819       -0.71392       -0.67034       -0.66693
       -0.64183       -0.61123       -0.60635       -0.58994       -0.58126
       -0.55162       -0.53561       -0.51710       -0.49348       -0.45498
        0.14527        0.17527        0.19391        0.22240        0.25438
        0.26540        0.27246        0.31033        0.32714        0.35586
        0.37648        0.48087        0.50377        0.53461        0.54867
        0.57010        0.59391        0.62477        0.63187        0.64344
        0.66036        0.71383        0.89014        0.95452        0.96145
        0.97981        1.00083        1.00178        1.02743        1.03885
        1.05715        1.10572        1.11821        1.12982        1.15259
        1.15845        1.18163        1.28284        1.32283        1.33627
        1.37584        1.39727        1.44617        1.48738        1.48902
        1.51859        1.53718        1.54832        1.56396        1.58330
        1.58963        1.63893        1.71471        1.72598        1.74257
        1.76920        1.83301        1.86395        1.87772        1.92472
        1.94008        1.97091        2.01889        2.09494        2.18454
        2.22779        2.25021        2.28988        2.29462        2.31446
        2.33897        2.41258        2.41535        2.51339        2.57064
        2.61859        2.66053        2.67336        2.71121        2.74156
        2.79321        2.79869        2.81458        2.86801        2.88031
        2.96229        3.00630        3.07734        3.17501        3.38149
        3.45465        3.46238        3.48487        3.49273        3.51709
        3.52589        3.53379        3.54032        3.55841        3.61120
        3.67337        3.71272        3.73010        3.98416        3.98846
        4.00418        4.09801        4.19271        4.21160        4.24454
        4.28657        4.62051        5.12616        5.24910        5.34332
        5.37662        5.39617        5.51446        5.69516        5.74571
        5.77193        5.81509        6.08961        6.10762        6.13556
        6.20308       37.02162       51.49871       51.53950       51.56152
       51.59547
 Time used in FCKEIG, thr_jaco:   2.84D-01  2.80D-02  1.61D-05
 CPU and wall times used in FCKEIG, THR_FCKEIG:   2.84D-01  2.80D-02  3.70D-03
 -----------------------------------------------------------------------------

 *** DIIS iteration number    4
 RDSUPM called. NFMAT, ISYMDM(1:NFMAT)                     1
                     1

 ITDIIS, energy, error norm, change in energy, scr.thr., difden:
@ DIIS iter.   4    -360.746777180        1.20349D-01   -8.71D-03  -20    F

 (DIIS_RED) Control Parameters C2DIIS =         F NEVC =    4


 (DIIS_RED) B matrix:

               Column   1     Column   2     Column   3     Column   4
       1      14.58790830
       2       0.84851478     0.91173357
       3       0.68111959     0.02876218     0.13662631
       4      -0.00580590     0.08865883    -0.01263456     0.01448382
    ==== End of matrix output ====

 DIIS C vector; C2DIIS = F, LAMBDA = -3.88D-03
   -0.000428   -0.092547    0.138283    0.954692
* Read MO coefficients from SIRIUS.RST with label "NEWORB  " and header info: 22Dec18  DIIS   4
      Virial theorem: -V/T =      2.002779
@      MULPOP N      -0.66; H       0.24; H       0.22; H       0.20; O      -0.68; O      -0.63; O      -0.75; O      -0.62; H       0.38; H       0.33; 
@             H       0.31; H       0.33; H       0.30; H       0.37; H       0.32; H       0.34; 
   4  Level shift: doubly occupied orbital energies shifted by -1.25D-02

 DIIS Fock eigenvalues in symmetry 1
      -20.58830      -20.56501      -20.55207      -20.53700      -15.53802
       -1.35590       -1.35206       -1.34080       -1.30057       -1.14249
       -0.72284       -0.70906       -0.70469       -0.66540       -0.64698
       -0.62302       -0.59847       -0.59484       -0.57920       -0.57682
       -0.53872       -0.52304       -0.50371       -0.49120       -0.43417
        0.14504        0.17418        0.19274        0.22107        0.25395
        0.26546        0.27282        0.31227        0.32606        0.35748
        0.37921        0.48424        0.50824        0.53509        0.54911
        0.56856        0.59345        0.62387        0.62961        0.64099
        0.65873        0.71663        0.89349        0.95696        0.96431
        0.97939        0.99909        1.00180        1.02768        1.03876
        1.05835        1.10522        1.11744        1.12906        1.15149
        1.15407        1.18186        1.28301        1.32392        1.33822
        1.37847        1.39720        1.44639        1.48637        1.48743
        1.51907        1.53468        1.54532        1.56238        1.58197
        1.58852        1.63616        1.71373        1.72433        1.74226
        1.76725        1.83468        1.86530        1.87892        1.92264
        1.94218        1.97032        2.02194        2.09788        2.18344
        2.23331        2.24762        2.29011        2.29307        2.31114
        2.33826        2.40933        2.41169        2.51328        2.57437
        2.61549        2.65926        2.67385        2.71094        2.74331
        2.79410        2.79865        2.81274        2.86855        2.88195
        2.97041        3.01666        3.08471        3.18270        3.37920
        3.45506        3.46596        3.48095        3.49193        3.51541
        3.52339        3.52455        3.54312        3.55609        3.60878
        3.66119        3.71047        3.72844        3.97307        3.98514
        4.00141        4.09580        4.18968        4.20107        4.24224
        4.28419        4.63394        5.14047        5.26123        5.33988
        5.35407        5.39303        5.51193        5.69018        5.72623
        5.76707        5.81162        6.08336        6.08693        6.13115
        6.19850       37.04985       51.48734       51.53266       51.55348
       51.55403
 Time used in FCKEIG, thr_jaco:   2.85D-01  2.80D-02  5.26D-06
 CPU and wall times used in FCKEIG, THR_FCKEIG:   2.85D-01  2.80D-02  1.20D-03
 -----------------------------------------------------------------------------

 *** DIIS iteration number    5
 RDSUPM called. NFMAT, ISYMDM(1:NFMAT)                     1
                     1

 ITDIIS, energy, error norm, change in energy, scr.thr., difden:
@ DIIS iter.   5    -360.747948439        2.36340D-02   -1.17D-03  -20    F

 (DIIS_RED) Control Parameters C2DIIS =         F NEVC =    5


 (DIIS_RED) B matrix:

               Column   1     Column   2     Column   3     Column   4     Column   5
       1      14.58790830
       2       0.84851478     0.91173357
       3       0.68111959     0.02876218     0.13662631
       4      -0.00580590     0.08865883    -0.01263456     0.01448382
       5       0.01233919     0.00636431     0.00482408     0.00085186     0.00055857
    ==== End of matrix output ====

 DIIS C vector; C2DIIS = F, LAMBDA = -3.09D-04
    0.001464    0.006117   -0.061313   -0.139169    1.192901
* Read MO coefficients from SIRIUS.RST with label "NEWORB  " and header info: 22Dec18  DIIS   5
      Virial theorem: -V/T =      2.002368
@      MULPOP N      -0.66; H       0.24; H       0.22; H       0.19; O      -0.69; O      -0.64; O      -0.76; O      -0.63; H       0.39; H       0.33; 
@             H       0.32; H       0.34; H       0.31; H       0.37; H       0.33; H       0.34; 

 DIIS Fock eigenvalues in symmetry 1
      -20.57397      -20.55233      -20.53864      -20.51865      -15.52069
       -1.34276       -1.33974       -1.32805       -1.28574       -1.12857
       -0.71029       -0.69690       -0.69279       -0.65149       -0.63364
       -0.60989       -0.58602       -0.58206       -0.56667       -0.56266
       -0.52468       -0.50987       -0.48991       -0.47572       -0.41990
        0.14494        0.17396        0.19258        0.22104        0.25383
        0.26536        0.27281        0.31243        0.32573        0.35796
        0.37966        0.48466        0.50860        0.53520        0.54943
        0.56853        0.59351        0.62353        0.62976        0.64035
        0.65853        0.71701        0.89447        0.95739        0.96514
        0.97986        1.00020        1.00272        1.02839        1.03993
        1.05898        1.10544        1.11739        1.12897        1.15239
        1.15440        1.18232        1.28329        1.32426        1.33855
        1.37899        1.39739        1.44683        1.48671        1.48703
        1.51904        1.53418        1.54452        1.56283        1.58194
        1.58860        1.63694        1.71333        1.72392        1.74264
        1.76686        1.83458        1.86529        1.87909        1.92205
        1.94236        1.96987        2.02239        2.09817        2.18320
        2.23382        2.24691        2.29012        2.29323        2.31131
        2.33820        2.40879        2.41091        2.51394        2.57474
        2.61453        2.65925        2.67365        2.71063        2.74328
        2.79373        2.79844        2.81209        2.86819        2.88187
        2.97125        3.01782        3.08568        3.18363        3.37988
        3.45683        3.46713        3.48164        3.49294        3.51589
        3.52313        3.52663        3.54411        3.55615        3.60937
        3.66346        3.71008        3.72858        3.97538        3.98540
        4.00135        4.09590        4.19034        4.20340        4.24235
        4.28392        4.63639        5.14259        5.26319        5.34010
        5.35777        5.39435        5.51269        5.69113        5.72942
        5.76760        5.81141        6.08429        6.08983        6.13075
        6.19862       37.05458       51.48915       51.53286       51.55471
       51.55946
 Time used in FCKEIG, thr_jaco:   2.88D-01  2.90D-02  1.03D-06
 CPU and wall times used in FCKEIG, THR_FCKEIG:   2.88D-01  2.90D-02  2.36D-04
 -----------------------------------------------------------------------------

 *** DIIS iteration number    6
 RDSUPM called. NFMAT, ISYMDM(1:NFMAT)                     1
                     1

 ITDIIS, energy, error norm, change in energy, scr.thr., difden:
@ DIIS iter.   6    -360.748033184        7.70204D-03   -8.47D-05  -20    F

 (DIIS_RED) Control Parameters C2DIIS =         F NEVC =    6


 (DIIS_RED) B matrix:

               Column   1     Column   2     Column   3     Column   4     Column   5     Column   6
       1      14.58790830
       2       0.84851478     0.91173357
       3       0.68111959     0.02876218     0.13662631
       4      -0.00580590     0.08865883    -0.01263456     0.01448382
       5       0.01233919     0.00636431     0.00482408     0.00085186     0.00055857
       6      -0.00199093    -0.00036898     0.00058796     0.00018523     0.00007136     0.00005932
    ==== End of matrix output ====

 DIIS C vector; C2DIIS = F, LAMBDA = -3.49D-05
    0.000508    0.007774   -0.021290   -0.084735    0.155394    0.942350
* Read MO coefficients from SIRIUS.RST with label "NEWORB  " and header info: 22Dec18  DIIS   6
      Virial theorem: -V/T =      2.002495
@      MULPOP N      -0.65; H       0.24; H       0.22; H       0.19; O      -0.70; O      -0.64; O      -0.77; O      -0.63; H       0.39; H       0.33; 
@             H       0.32; H       0.34; H       0.31; H       0.37; H       0.33; H       0.34; 

 DIIS Fock eigenvalues in symmetry 1
      -20.57461      -20.55251      -20.53903      -20.52041      -15.52426
       -1.34292       -1.33980       -1.32814       -1.28612       -1.12969
       -0.71059       -0.69713       -0.69298       -0.65193       -0.63454
       -0.61061       -0.58647       -0.58247       -0.56696       -0.56317
       -0.52472       -0.50977       -0.48989       -0.47597       -0.42085
        0.14482        0.17385        0.19249        0.22095        0.25375
        0.26526        0.27264        0.31226        0.32562        0.35781
        0.37941        0.48434        0.50821        0.53501        0.54923
        0.56840        0.59333        0.62340        0.62961        0.64018
        0.65837        0.71669        0.89396        0.95711        0.96471
        0.97969        0.99992        1.00250        1.02811        1.03961
        1.05876        1.10523        1.11722        1.12877        1.15207
        1.15414        1.18220        1.28301        1.32399        1.33819
        1.37858        1.39717        1.44653        1.48648        1.48680
        1.51872        1.53397        1.54429        1.56263        1.58172
        1.58836        1.63668        1.71307        1.72370        1.74245
        1.76665        1.83428        1.86496        1.87890        1.92185
        1.94193        1.96954        2.02207        2.09789        2.18289
        2.23319        2.24660        2.28986        2.29273        2.31097
        2.33784        2.40856        2.41067        2.51361        2.57429
        2.61427        2.65913        2.67337        2.71035        2.74293
        2.79344        2.79817        2.81184        2.86790        2.88159
        2.97035        3.01674        3.08485        3.18283        3.37963
        3.45614        3.46642        3.48123        3.49228        3.51559
        3.52299        3.52601        3.54338        3.55598        3.60914
        3.66297        3.70996        3.72837        3.97482        3.98518
        4.00117        4.09569        4.19008        4.20278        4.24218
        4.28380        4.63459        5.14090        5.26168        5.33995
        5.35691        5.39383        5.51238        5.69076        5.72856
        5.76731        5.81125        6.08388        6.08898        6.13057
        6.19835       37.05109       51.48851       51.53267       51.55432
       51.55773
 Time used in FCKEIG, thr_jaco:   2.37D-01  2.40D-02  3.36D-07
 CPU and wall times used in FCKEIG, THR_FCKEIG:   2.37D-01  2.40D-02  7.70D-05
 -----------------------------------------------------------------------------

 *** DIIS iteration number    7
 RDSUPM called. NFMAT, ISYMDM(1:NFMAT)                     1
                     1

 ITDIIS, energy, error norm, change in energy, scr.thr., difden:
@ DIIS iter.   7    -360.748039555        2.46860D-03   -6.37D-06  -20    F

 (DIIS_RED) Control Parameters C2DIIS =         F NEVC =    7


 (DIIS_RED) B matrix:

               Column   1     Column   2     Column   3     Column   4     Column   5     Column   6
       1      14.58790830
       2       0.84851478     0.91173357
       3       0.68111959     0.02876218     0.13662631
       4      -0.00580590     0.08865883    -0.01263456     0.01448382
       5       0.01233919     0.00636431     0.00482408     0.00085186     0.00055857
       6      -0.00199093    -0.00036898     0.00058796     0.00018523     0.00007136     0.00005932
       7       0.00077876    -0.00002861     0.00009878    -0.00000492     0.00003563     0.00000029

               Column   7
       7       0.00000609
    ==== End of matrix output ====

 DIIS C vector; C2DIIS = F, LAMBDA = -1.40D-06
   -0.000231   -0.001270    0.008578    0.024825   -0.164546    0.038041    1.094602
* Read MO coefficients from SIRIUS.RST with label "NEWORB  " and header info: 22Dec18  DIIS   7
      Virial theorem: -V/T =      2.002467
@      MULPOP N      -0.66; H       0.24; H       0.22; H       0.19; O      -0.70; O      -0.64; O      -0.77; O      -0.63; H       0.39; H       0.33; 
@             H       0.32; H       0.34; H       0.31; H       0.37; H       0.33; H       0.34; 

 DIIS Fock eigenvalues in symmetry 1
      -20.57448      -20.55259      -20.53903      -20.51974      -15.52353
       -1.34284       -1.33980       -1.32813       -1.28580       -1.12945
       -0.71057       -0.69716       -0.69302       -0.65169       -0.63440
       -0.61053       -0.58649       -0.58248       -0.56702       -0.56297
       -0.52457       -0.50974       -0.48980       -0.47562       -0.42058
        0.14483        0.17385        0.19251        0.22098        0.25375
        0.26527        0.27268        0.31228        0.32560        0.35789
        0.37947        0.48443        0.50830        0.53505        0.54931
        0.56844        0.59337        0.62340        0.62968        0.64015
        0.65838        0.71676        0.89409        0.95715        0.96483
        0.97972        1.00006        1.00261        1.02820        1.03976
        1.05881        1.10526        1.11724        1.12879        1.15220
        1.15422        1.18225        1.28308        1.32405        1.33826
        1.37867        1.39722        1.44662        1.48655        1.48682
        1.51874        1.53394        1.54425        1.56276        1.58174
        1.58839        1.63683        1.71307        1.72370        1.74257
        1.76664        1.83430        1.86499        1.87900        1.92182
        1.94200        1.96956        2.02214        2.09798        2.18288
        2.23329        2.24658        2.28991        2.29280        2.31104
        2.33786        2.40853        2.41063        2.51377        2.57435
        2.61423        2.65923        2.67337        2.71034        2.74296
        2.79342        2.79815        2.81181        2.86794        2.88168
        2.97053        3.01694        3.08503        3.18298        3.37970
        3.45638        3.46660        3.48134        3.49245        3.51566
        3.52297        3.52631        3.54352        3.55599        3.60921
        3.66329        3.70994        3.72839        3.97513        3.98521
        4.00117        4.09569        4.19018        4.20310        4.24219
        4.28379        4.63500        5.14123        5.26198        5.33994
        5.35734        5.39397        5.51241        5.69085        5.72895
        5.76734        5.81122        6.08398        6.08937        6.13053
        6.19836       37.05179       51.48864       51.53259       51.55433
       51.55839
 Time used in FCKEIG, thr_jaco:   2.43D-01  2.50D-02  1.08D-07
 CPU and wall times used in FCKEIG, THR_FCKEIG:   2.43D-01  2.50D-02  2.47D-05
 -----------------------------------------------------------------------------

 *** DIIS iteration number    8
 RDSUPM called. NFMAT, ISYMDM(1:NFMAT)                     1
                     1

 ITDIIS, energy, error norm, change in energy, scr.thr., difden:
@ DIIS iter.   8    -360.748040197        3.72901D-04   -6.42D-07  -20    F

 (DIIS_RED) Control Parameters C2DIIS =         F NEVC =    8


 (DIIS_RED) B matrix:

               Column   1     Column   2     Column   3     Column   4     Column   5     Column   6
       1      14.58790830
       2       0.84851478     0.91173357
       3       0.68111959     0.02876218     0.13662631
       4      -0.00580590     0.08865883    -0.01263456     0.01448382
       5       0.01233919     0.00636431     0.00482408     0.00085186     0.00055857
       6      -0.00199093    -0.00036898     0.00058796     0.00018523     0.00007136     0.00005932
       7       0.00077876    -0.00002861     0.00009878    -0.00000492     0.00003563     0.00000029
       8       0.00004336    -0.00000379    -0.00000305     0.00000365     0.00000099     0.00000150

               Column   7     Column   8
       7       0.00000609
       8       0.00000029     0.00000014
    ==== End of matrix output ====

 DIIS C vector; C2DIIS = F, LAMBDA = -7.42D-08
    0.000008   -0.000007   -0.000550   -0.001404    0.019721   -0.041343   -0.150210    1.173787
* Read MO coefficients from SIRIUS.RST with label "NEWORB  " and header info: 22Dec18  DIIS   8
      Virial theorem: -V/T =      2.002483
@      MULPOP N      -0.66; H       0.24; H       0.22; H       0.19; O      -0.70; O      -0.64; O      -0.77; O      -0.63; H       0.39; H       0.33; 
@             H       0.32; H       0.34; H       0.31; H       0.37; H       0.33; H       0.34; 

 DIIS Fock eigenvalues in symmetry 1
      -20.57449      -20.55255      -20.53900      -20.51977      -15.52358
       -1.34284       -1.33979       -1.32811       -1.28581       -1.12946
       -0.71057       -0.69714       -0.69300       -0.65170       -0.63441
       -0.61054       -0.58650       -0.58251       -0.56703       -0.56298
       -0.52457       -0.50973       -0.48978       -0.47562       -0.42060
        0.14483        0.17385        0.19251        0.22099        0.25375
        0.26527        0.27268        0.31228        0.32560        0.35788
        0.37946        0.48442        0.50829        0.53505        0.54930
        0.56844        0.59336        0.62340        0.62968        0.64015
        0.65838        0.71675        0.89408        0.95714        0.96482
        0.97971        1.00005        1.00261        1.02819        1.03975
        1.05881        1.10526        1.11724        1.12880        1.15220
        1.15423        1.18225        1.28307        1.32405        1.33825
        1.37867        1.39722        1.44661        1.48654        1.48682
        1.51873        1.53393        1.54424        1.56275        1.58174
        1.58838        1.63682        1.71306        1.72369        1.74256
        1.76664        1.83429        1.86498        1.87900        1.92182
        1.94199        1.96955        2.02214        2.09797        2.18287
        2.23328        2.24658        2.28991        2.29279        2.31104
        2.33785        2.40853        2.41063        2.51375        2.57434
        2.61423        2.65923        2.67336        2.71034        2.74295
        2.79342        2.79814        2.81181        2.86793        2.88167
        2.97051        3.01692        3.08501        3.18297        3.37969
        3.45637        3.46659        3.48134        3.49244        3.51565
[...]

 Principal values of diagonalized transition strength matrix:

             a.u.               
 1      -0.00000001
 2       0.00000000
 3       0.00017374

 Principal axis of diagonalized transition strength matrix:


               Column   1     Column   2     Column   3
       1      -0.42556131    -0.10347087     0.89899463
       2      -0.55142174     0.81734937    -0.16695529
       3       0.71751769     0.56677490     0.40488836
    ==== End of matrix output ====


 CCSD   oscillator strength matrix for state nr. 13 of symmetry 1
 CCSD  excitation energy:15.11176494


               Column   1     Column   2     Column   3
       1       0.00141463    -0.00026273     0.00063715
       2      -0.00026273     0.00004877    -0.00011830
       3       0.00063715    -0.00011830     0.00028692
    ==== End of matrix output ====

 Principal values of diagonalized oscillator strength matrix:

             a.u.               
 1      -0.00000006
 2       0.00000000
 3       0.00175038

 Principal axis of diagonalized oscillator strength matrix:


               Column   1     Column   2     Column   3
       1      -0.42556131    -0.10347087     0.89899463
       2      -0.55142174     0.81734937    -0.16695529
       3       0.71751769     0.56677490     0.40488836
    ==== End of matrix output ====


 CCSD  Transition strength matrix for state nr. 14 of symmetry 1
 CCSD  excitation energy:15.19790703

 Gauge: length

               Column   1     Column   2     Column   3
       1     8.356427D-06   2.664883D-06  -2.215753D-05
       2     2.664883D-06   8.495070D-07  -7.068813D-06
       3    -2.215753D-05  -7.068813D-06   5.872939D-05
    ==== End of matrix output ====

 Principal values of diagonalized transition strength matrix:

             a.u.               
 1      -0.00000000
 2       0.00000000
 3       0.00006794

 Principal axis of diagonalized transition strength matrix:


               Column   1     Column   2     Column   3
       1       0.76766474    -0.53633772    -0.35076016
       2       0.53426604     0.83787786    -0.11189498
       3       0.35390767    -0.10150141     0.92975632
    ==== End of matrix output ====


 CCSD   oscillator strength matrix for state nr. 14 of symmetry 1
 CCSD  excitation energy:15.19790703


               Column   1     Column   2     Column   3
       1     8.466680D-05   2.700043D-05  -2.244987D-04
       2     2.700043D-05   8.607152D-06  -7.162077D-05
       3    -2.244987D-04  -7.162077D-05   5.950426D-04
    ==== End of matrix output ====

 Principal values of diagonalized oscillator strength matrix:

             a.u.               
 1      -0.00000004
 2       0.00000000
 3       0.00068836

 Principal axis of diagonalized oscillator strength matrix:


               Column   1     Column   2     Column   3
       1       0.76766474    -0.53633772    -0.35076016
       2       0.53426604     0.83787786    -0.11189498
       3       0.35390767    -0.10150141     0.92975632
    ==== End of matrix output ====


 CCSD  Transition strength matrix for state nr. 15 of symmetry 1
 CCSD  excitation energy:15.26286523

 Gauge: length

               Column   1     Column   2     Column   3
       1     4.970664D-04   3.147089D-04   8.519291D-05
       2     3.147089D-04   1.992497D-04   5.393428D-05
       3     8.519291D-05   5.393428D-05   1.459509D-05
    ==== End of matrix output ====

 Principal values of diagonalized transition strength matrix:

             a.u.               
 1      -0.00000001
 2      -0.00000000
 3       0.00071092

 Principal axis of diagonalized transition strength matrix:


               Column   1     Column   2     Column   3
       1      -0.37709649    -0.39825599     0.83617606
       2       0.36520951     0.76573488     0.52940732
       3       0.85112881    -0.50501709     0.14330906
    ==== End of matrix output ====


 CCSD   oscillator strength matrix for state nr. 15 of symmetry 1
 CCSD  excitation energy:15.26286523


               Column   1     Column   2     Column   3
       1       0.00505777     0.00320224     0.00086686
       2       0.00320224     0.00202741     0.00054879
       3       0.00086686     0.00054879     0.00014851
    ==== End of matrix output ====

 Principal values of diagonalized oscillator strength matrix:

             a.u.               
 1      -0.00000008
 2      -0.00000000
 3       0.00723377

 Principal axis of diagonalized oscillator strength matrix:


               Column   1     Column   2     Column   3
       1      -0.37709649    -0.39825599     0.83617606
       2       0.36520951     0.76573488     0.52940732
       3       0.85112881    -0.50501709     0.14330906
    ==== End of matrix output ====

  Total time for    135 linear response residues:     132.12 seconds.
  

 *******************************************************************************
 *******************************************************************************
 *                                                                             *
 *                                                                             *
 *                   SUMMARY OF COUPLED CLUSTER CALCULATION                    *
 *                                                                             *
 *                                                                             *
 *******************************************************************************
 *******************************************************************************

                                                                                
                                                                                
            Total SCF   energy:                  -360.7480402177                
            Total MP2   energy:                  -361.8535739596                
            Total CCSD  energy:                  -361.8924426786                
                                                                                
                                                                                
            Total SCF   energy:                  -360.7480402177                
            Total RSTAR energy:                  -361.8924426786                
            Total CCSD  energy:                  -361.8925786731                
                                                                                
                                                                                
            Total SCF   energy:                  -360.7480402177                
            Total RSTAR energy:                  -361.8925786731                
            Total CCSD  energy:                  -361.8925799697                
                                                                                
                                                                                
            Total SCF   energy:                  -360.7480402177                
            Total RSTAR energy:                  -361.8925799697                
            Total CCSD  energy:                  -361.8925800910                
                                                                                
                                                                                
            Total SCF   energy:                  -360.7480402177                
            Total RSTAR energy:                  -361.8925800910                
            Total CCSD  energy:                  -361.8925800962                
                                                                                
                                                                                
            Total SCF   energy:                  -360.7480402177                
            Total RSTAR energy:                  -361.8925800962                
            Total CCSD  energy:                  -361.8925800965                
            CCSD Total  energy:                  -362.2785694570                
            CCSD E(QM/MM)     :                    -0.3811494749                
                                                                                
                                                                                
                                                                                
 +=============================================================================+
 |  sym. | Exci.  |        CCSD       Excitation energies            | ||T1||  |
 |(spin, |        +------------------------------------------------------------+
 | spat) |        |     Hartree    |       eV.      |     cm-1       |    %    |
 +=============================================================================+
 | ^1A   |    1   |    14.8308096  |     403.56686  |   3254986.437  |  88.31  |
 | ^1A   |    2   |    14.9008777  |     405.47351  |   3270364.609  |  88.68  |
 | ^1A   |    3   |    14.9025585  |     405.51925  |   3270733.509  |  88.76  |
 | ^1A   |    4   |    14.9362912  |     406.43716  |   3278136.979  |  88.19  |
 | ^1A   |    5   |    14.9683330  |     407.30906  |   3285169.347  |  88.06  |
 | ^1A   |    6   |    14.9900550  |     407.90015  |   3289936.761  |  88.02  |
 | ^1A   |    7   |    15.0080564  |     408.38999  |   3293887.616  |  87.89  |
 | ^1A   |    8   |    15.0226567  |     408.78728  |   3297092.012  |  87.92  |
 | ^1A   |    9   |    15.0435548  |     409.35595  |   3301678.607  |  88.10  |
 | ^1A   |   10   |    15.0479334  |     409.47510  |   3302639.597  |  87.89  |
 | ^1A   |   11   |    15.0868845  |     410.53501  |   3311188.392  |  87.88  |
 | ^1A   |   12   |    15.0976318  |     410.82746  |   3313547.137  |  87.92  |
 | ^1A   |   13   |    15.1117649  |     411.21204  |   3316649.008  |  87.85  |
 | ^1A   |   14   |    15.1979070  |     413.55609  |   3335555.011  |  87.94  |
 | ^1A   |   15   |    15.2628652  |     415.32369  |   3349811.689  |  87.91  |
 +=============================================================================+
                                                                                
                                                                                
     Total energies in Hartree:                                                 
             1 ^1A       -347.0666103968                                        
             2 ^1A       -346.9965422883                                        
             3 ^1A       -346.9948614551                                        
             4 ^1A       -346.9611287629                                        
             5 ^1A       -346.9290869386                                        
             6 ^1A       -346.9073649995                                        
             7 ^1A       -346.8893635794                                        
             8 ^1A       -346.8747632761                                        
             9 ^1A       -346.8538652134                                        
            10 ^1A       -346.8494866206                                        
            11 ^1A       -346.8105354438                                        
            12 ^1A       -346.7997882097                                        
            13 ^1A       -346.7856550448                                        
            14 ^1A       -346.6995129569                                        
            15 ^1A       -346.6345547518                                        
                                                                                
                                                                                
 +=============================================================================+
 |  sym. | Exci.  |        CCSD       Length   Gauge Oscillator Strength       |
 |(spin, |        +------------------------------------------------------------+
 | spat) |        | Dipole Strength(a.u.) | Oscillator strength  | Direction   |
 +=============================================================================+
 | ^1A   |    1   |        0.0004246      |      0.0041983       |  (Y,Z)      |
 | ^1A   |    2   |        0.0033305      |      0.0330854       |  (Y,Z)      |
 | ^1A   |    3   |        0.0030853      |      0.0306527       |  (Y,Z)      |
 | ^1A   |    4   |        0.0011201      |      0.0111533       |  (Y,Z)      |
 | ^1A   |    5   |        0.0008519      |      0.0085008       |  (Y,Z)      |
 | ^1A   |    6   |        0.0009023      |      0.0090175       |  (Y,Z)      |
 | ^1A   |    7   |        0.0005015      |      0.0050173       |  (Y,Z)      |
 | ^1A   |    8   |        0.0003066      |      0.0030709       |  (Y,Z)      |
 | ^1A   |    9   |        0.0010052      |      0.0100816       |  (Y,Z)      |
 | ^1A   |   10   |        0.0003100      |      0.0031102       |  (Y,Z)      |
 | ^1A   |   11   |        0.0003352      |      0.0033714       |  (Y,Z)      |
 | ^1A   |   12   |        0.0003017      |      0.0030371       |  (Y,Z)      |
 | ^1A   |   13   |        0.0001737      |      0.0017503       |  (Y,Z)      |
 | ^1A   |   14   |        0.0000679      |      0.0006883       |  (Y,Z)      |
 | ^1A   |   15   |        0.0007109      |      0.0072337       |  (Y,Z)      |
 +=============================================================================+

  1 a.u. =        27.21138 eV.  
  1 a.u. =    219474.62934 cm-1.
  

 *******************************************************************************
 *******************************************************************************
 *                                                                             *
 *                                                                             *
 *                      END OF COUPLED CLUSTER CALCULATION                     *
 *                                                                             *
 *                                                                             *
 *******************************************************************************
 *******************************************************************************


 CPU and wall time for CC :  596820.316  110265.588

 
     Date and time (Linux)  : Sun Dec 23 22:18:23 2018
     Host name              : n-62-29-11                              


                      .-------------------------------------.
                      | End of Coupled Cluster Section (CC) |
                      `-------------------------------------'

  Total CPU  time used in DALTON: 165 hours 57 minutes 31 seconds
  Total wall time used in DALTON:  30 hours 40 minutes 14 seconds

 
     Date and time (Linux)  : Sun Dec 23 22:18:23 2018
     Host name              : n-62-29-11                              
  

 +---------------------------------------------------------+ 
 | List of selected calculated molecular properties (a.u.) | 
 +---------------------------------------------------------+ 

  Properties are read from unit number                      4

 CCSD       properties :
 #  1 1 CCSD/MM  Ground state Energy =    -362.2785694570
 #  2 1 E_QM/MM  Ground state Energy =      -0.3811494749
 #  3 1 Sy: 1 Sp: 1 Exc:  1 E_tot:   -347.0666103968 w:     14.8308095853 E_grs:   -361.8974199821
 #  4 1 Exctot   Excited state Energy =    -347.0666103968
 #  5 1 Sy: 1 Sp: 1 Exc:  2 E_tot:   -346.9965422883 w:     14.9008776938 E_grs:   -361.8974199821
 #  6 1 Exctot   Excited state Energy =    -346.9965422883
 #  7 1 Sy: 1 Sp: 1 Exc:  3 E_tot:   -346.9948614551 w:     14.9025585270 E_grs:   -361.8974199821
 #  8 1 Exctot   Excited state Energy =    -346.9948614551
 #  9 1 Sy: 1 Sp: 1 Exc:  4 E_tot:   -346.9611287629 w:     14.9362912192 E_grs:   -361.8974199821
 # 10 1 Exctot   Excited state Energy =    -346.9611287629
 # 11 1 Sy: 1 Sp: 1 Exc:  5 E_tot:   -346.9290869386 w:     14.9683330435 E_grs:   -361.8974199821
 # 12 1 Exctot   Excited state Energy =    -346.9290869386
 # 13 1 Sy: 1 Sp: 1 Exc:  6 E_tot:   -346.9073649995 w:     14.9900549826 E_grs:   -361.8974199821
 # 14 1 Exctot   Excited state Energy =    -346.9073649995
 # 15 1 Sy: 1 Sp: 1 Exc:  7 E_tot:   -346.8893635794 w:     15.0080564026 E_grs:   -361.8974199821
 # 16 1 Exctot   Excited state Energy =    -346.8893635794
 # 17 1 Sy: 1 Sp: 1 Exc:  8 E_tot:   -346.8747632761 w:     15.0226567060 E_grs:   -361.8974199821
 # 18 1 Exctot   Excited state Energy =    -346.8747632761
 # 19 1 Sy: 1 Sp: 1 Exc:  9 E_tot:   -346.8538652134 w:     15.0435547686 E_grs:   -361.8974199821
 # 20 1 Exctot   Excited state Energy =    -346.8538652134
 # 21 1 Sy: 1 Sp: 1 Exc: 10 E_tot:   -346.8494866206 w:     15.0479333615 E_grs:   -361.8974199821
 # 22 1 Exctot   Excited state Energy =    -346.8494866206
 # 23 1 Sy: 1 Sp: 1 Exc: 11 E_tot:   -346.8105354438 w:     15.0868845382 E_grs:   -361.8974199821
 # 24 1 Exctot   Excited state Energy =    -346.8105354438
 # 25 1 Sy: 1 Sp: 1 Exc: 12 E_tot:   -346.7997882097 w:     15.0976317724 E_grs:   -361.8974199821
 # 26 1 Exctot   Excited state Energy =    -346.7997882097
 # 27 1 Sy: 1 Sp: 1 Exc: 13 E_tot:   -346.7856550448 w:     15.1117649373 E_grs:   -361.8974199821
 # 28 1 Exctot   Excited state Energy =    -346.7856550448
 # 29 1 Sy: 1 Sp: 1 Exc: 14 E_tot:   -346.6995129569 w:     15.1979070251 E_grs:   -361.8974199821
 # 30 1 Exctot   Excited state Energy =    -346.6995129569
 # 31 1 Sy: 1 Sp: 1 Exc: 15 E_tot:   -346.6345547518 w:     15.2628652302 E_grs:   -361.8974199821
 # 32 1 Exctot   Excited state Energy =    -346.6345547518
 # 33 1 |<O|XDIPLEN |i(14.830810)>| =     0.01773468
 # 35 1 |<O|XDIPLEN |i(14.900878)>| =     0.00564263
 # 37 1 |<O|XDIPLEN |i(14.902559)>| =     0.02106526
 # 39 1 |<O|XDIPLEN |i(14.936291)>| =     0.02896054
 # 41 1 |<O|XDIPLEN |i(14.968333)>| =     0.02372641
 # 43 1 |<O|XDIPLEN |i(14.990055)>| =     0.00242629
 # 45 1 |<O|XDIPLEN |i(15.008056)>| =     0.00406136
 # 47 1 |<O|XDIPLEN |i(15.022657)>| =     0.01536069
 # 49 1 |<O|XDIPLEN |i(15.043555)>| =     0.02520766
 # 51 1 |<O|XDIPLEN |i(15.047933)>| =     0.00584714
 # 53 1 |<O|XDIPLEN |i(15.086885)>| =     0.00994506
 # 55 1 |<O|XDIPLEN |i(15.097632)>| =     0.01214773
 # 57 1 |<O|XDIPLEN |i(15.111765)>| =     0.01184978
 # 59 1 |<O|XDIPLEN |i(15.197907)>| =     0.00289075
 # 61 1 |<O|XDIPLEN |i(15.262865)>| =     0.02229499
 # 63 1 |<O|YDIPLEN |i(14.830810)>| =     0.00461828
 # 65 1 |<O|YDIPLEN |i(14.900878)>| =     0.04001440
 # 67 1 |<O|YDIPLEN |i(14.902559)>| =     0.04166359
 # 69 1 |<O|YDIPLEN |i(14.936291)>| =     0.00679992
 # 71 1 |<O|YDIPLEN |i(14.968333)>| =     0.00734325
 # 73 1 |<O|YDIPLEN |i(14.990055)>| =     0.00908686
 # 75 1 |<O|YDIPLEN |i(15.008056)>| =     0.02132929
 # 77 1 |<O|YDIPLEN |i(15.022657)>| =     0.00768051
 # 79 1 |<O|YDIPLEN |i(15.043555)>| =     0.00777829
 # 81 1 |<O|YDIPLEN |i(15.047933)>| =     0.01220268
 # 83 1 |<O|YDIPLEN |i(15.086885)>| =     0.00742652
 # 85 1 |<O|YDIPLEN |i(15.097632)>| =     0.00536721
 # 87 1 |<O|YDIPLEN |i(15.111765)>| =     0.00220024
 # 89 1 |<O|YDIPLEN |i(15.197907)>| =     0.00092169
 # 91 1 |<O|YDIPLEN |i(15.262865)>| =     0.01411558
 # 93 1 |<O|ZDIPLEN |i(14.830810)>| =     0.00942188
 # 95 1 |<O|ZDIPLEN |i(14.900878)>| =     0.04120141
 # 97 1 |<O|ZDIPLEN |i(14.902559)>| =     0.03009514
 # 99 1 |<O|ZDIPLEN |i(14.936291)>| =     0.01533406
 #101 1 |<O|ZDIPLEN |i(14.968333)>| =     0.01533026
 #103 1 |<O|ZDIPLEN |i(14.990055)>| =     0.02852879
 #105 1 |<O|ZDIPLEN |i(15.008056)>| =     0.00547929
 #107 1 |<O|ZDIPLEN |i(15.022657)>| =     0.00341863
 #109 1 |<O|ZDIPLEN |i(15.043555)>| =     0.01758730
 #111 1 |<O|ZDIPLEN |i(15.047933)>| =     0.01126644
 #113 1 |<O|ZDIPLEN |i(15.086885)>| =     0.01345879
 #115 1 |<O|ZDIPLEN |i(15.097632)>| =     0.01119680
 #117 1 |<O|ZDIPLEN |i(15.111765)>| =     0.00533661
 #119 1 |<O|ZDIPLEN |i(15.197907)>| =     0.00766351
 #121 1 |<O|ZDIPLEN |i(15.262865)>| =     0.00382035

 THE_END   
