

     ************************************************************************
     *************** Dalton - An Electronic Structure Program ***************
     ************************************************************************

    This is output from DALTON release Dalton2017.alpha (2016)
         ( Web site: http://daltonprogram.org )

   ----------------------------------------------------------------------------

    NOTE:
     
    Dalton is an experimental code for the evaluation of molecular
    properties using (MC)SCF, DFT, CI, and CC wave functions.
    The authors accept no responsibility for the performance of
    the code or for the correctness of the results.
     
    The code (in whole or part) is provided under a licence and
    is not to be reproduced for further distribution without
    the written permission of the authors or their representatives.
     
    See the home page "http://daltonprogram.org" for further information.
     
    If results obtained with this code are published,
    the appropriate citations would be both of:
     
       K. Aidas, C. Angeli, K. L. Bak, V. Bakken, R. Bast,
       L. Boman, O. Christiansen, R. Cimiraglia, S. Coriani,
       P. Dahle, E. K. Dalskov, U. Ekstroem,
       T. Enevoldsen, J. J. Eriksen, P. Ettenhuber, B. Fernandez,
       L. Ferrighi, H. Fliegl, L. Frediani, K. Hald, A. Halkier,
       C. Haettig, H. Heiberg, T. Helgaker, A. C. Hennum,
       H. Hettema, E. Hjertenaes, S. Hoest, I.-M. Hoeyvik,
       M. F. Iozzi, B. Jansik, H. J. Aa. Jensen, D. Jonsson,
       P. Joergensen, J. Kauczor, S. Kirpekar,
       T. Kjaergaard, W. Klopper, S. Knecht, R. Kobayashi, H. Koch,
       J. Kongsted, A. Krapp, K. Kristensen, A. Ligabue,
       O. B. Lutnaes, J. I. Melo, K. V. Mikkelsen, R. H. Myhre,
       C. Neiss, C. B. Nielsen, P. Norman, J. Olsen,
       J. M. H. Olsen, A. Osted, M. J. Packer, F. Pawlowski,
       T. B. Pedersen, P. F. Provasi, S. Reine, Z. Rinkevicius,
       T. A. Ruden, K. Ruud, V. Rybkin, P. Salek, C. C. M. Samson,
       A. Sanchez de Meras, T. Saue, S. P. A. Sauer,
       B. Schimmelpfennig, K. Sneskov, A. H. Steindal,
       K. O. Sylvester-Hvid, P. R. Taylor, A. M. Teale,
       E. I. Tellgren, D. P. Tew, A. J. Thorvaldsen, L. Thoegersen,
       O. Vahtras, M. A. Watson, D. J. D. Wilson, M. Ziolkowski
       and H. Agren,
       "The Dalton quantum chemistry program system",
       WIREs Comput. Mol. Sci. 2014, 4:269–284 (doi: 10.1002/wcms.1172)
     
    and
     
       Dalton, a Molecular Electronic Structure Program,
       Release Dalton2017.alpha (2016), see http://daltonprogram.org
   ----------------------------------------------------------------------------

    Authors in alphabetical order (major contribution(s) in parenthesis):

  Kestutis Aidas,           Vilnius University,           Lithuania   (QM/MM)
  Celestino Angeli,         University of Ferrara,        Italy       (NEVPT2)
  Keld L. Bak,              UNI-C,                        Denmark     (AOSOPPA, non-adiabatic coupling, magnetic properties)
  Vebjoern Bakken,          University of Oslo,           Norway      (DALTON; geometry optimizer, symmetry detection)
  Radovan Bast,             UiT The Arctic U. of Norway,  Norway      (DALTON installation and execution frameworks)
  Pablo Baudin,             University of Valencia,       Spain       (Cholesky excitation energies)
  Linus Boman,              NTNU,                         Norway      (Cholesky decomposition and subsystems)
  Ove Christiansen,         Aarhus University,            Denmark     (CC module)
  Renzo Cimiraglia,         University of Ferrara,        Italy       (NEVPT2)
  Sonia Coriani,            University of Trieste,        Italy       (CC module, MCD in RESPONS)
  Janusz Cukras,            University of Trieste,        Italy       (MChD in RESPONS)
  Paal Dahle,               University of Oslo,           Norway      (Parallelization)
  Erik K. Dalskov,          UNI-C,                        Denmark     (SOPPA)
  Thomas Enevoldsen,        Univ. of Southern Denmark,    Denmark     (SOPPA)
  Janus J. Eriksen,         Aarhus University,            Denmark     (Polarizable embedding model, TDA)
  Rasmus Faber,             University of Copenhagen,     Denmark     (Vib.avg. NMR with SOPPA, parallel AO-SOPPA)
  Berta Fernandez,          U. of Santiago de Compostela, Spain       (doublet spin, ESR in RESPONS)
  Lara Ferrighi,            Aarhus University,            Denmark     (PCM Cubic response)
  Heike Fliegl,             University of Oslo,           Norway      (CCSD(R12))
  Luca Frediani,            UiT The Arctic U. of Norway,  Norway      (PCM)
  Bin Gao,                  UiT The Arctic U. of Norway,  Norway      (Gen1Int library)
  Christof Haettig,         Ruhr-University Bochum,       Germany     (CC module)
  Kasper Hald,              Aarhus University,            Denmark     (CC module)
  Asger Halkier,            Aarhus University,            Denmark     (CC module)
  Frederik Beyer Hansen,    University of Copenhagen,     Denmark     (Parallel AO-SOPPA)
  Erik D. Hedegaard,        Univ. of Southern Denmark,    Denmark     (Polarizable embedding model, QM/MM)
  Hanne Heiberg,            University of Oslo,           Norway      (geometry analysis, selected one-electron integrals)
  Trygve Helgaker,          University of Oslo,           Norway      (DALTON; ABACUS, ERI, DFT modules, London, and much more)
  Alf Christian Hennum,     University of Oslo,           Norway      (Parity violation)
  Hinne Hettema,            University of Auckland,       New Zealand (quadratic response in RESPONS; SIRIUS supersymmetry)
  Eirik Hjertenaes,         NTNU,                         Norway      (Cholesky decomposition)
  Pi A. B. Haase,           University of Copenhagen,     Denmark     (Triplet AO-SOPPA)
  Maria Francesca Iozzi,    University of Oslo,           Norway      (RPA)
  Brano Jansik              Technical Univ. of Ostrava    Czech Rep.  (DFT cubic response)
  Hans Joergen Aa. Jensen,  Univ. of Southern Denmark,    Denmark     (DALTON; SIRIUS, RESPONS, ABACUS modules, London, and much more)
  Dan Jonsson,              UiT The Arctic U. of Norway,  Norway      (cubic response in RESPONS module)
  Poul Joergensen,          Aarhus University,            Denmark     (RESPONS, ABACUS, and CC modules)
  Maciej Kaminski,          University of Warsaw,         Poland      (CPPh in RESPONS)
  Joanna Kauczor,           Linkoeping University,        Sweden      (Complex polarization propagator (CPP) module)
  Sheela Kirpekar,          Univ. of Southern Denmark,    Denmark     (Mass-velocity & Darwin integrals)
  Wim Klopper,              KIT Karlsruhe,                Germany     (R12 code in CC, SIRIUS, and ABACUS modules)
  Stefan Knecht,            ETH Zurich,                   Switzerland (Parallel CI and MCSCF)
  Rika Kobayashi,           Australian National Univ.,    Australia   (DIIS in CC, London in MCSCF)
  Henrik Koch,              NTNU,                         Norway      (CC module, Cholesky decomposition)
  Jacob Kongsted,           Univ. of Southern Denmark,    Denmark     (Polarizable embedding model, QM/MM)
  Andrea Ligabue,           University of Modena,         Italy       (CTOCD, AOSOPPA)
  Nanna H. List             Univ. of Southern Denmark,    Denmark     (Polarizable embedding model)
  Ola B. Lutnaes,           University of Oslo,           Norway      (DFT Hessian)
  Juan I. Melo,             University of Buenos Aires,   Argentina   (LRESC, Relativistic Effects on NMR Shieldings)
  Kurt V. Mikkelsen,        University of Copenhagen,     Denmark     (MC-SCRF and QM/MM)
  Rolf H. Myhre,            NTNU,                         Norway      (Cholesky, subsystems and ECC2)
  Christian Neiss,          Univ. Erlangen-Nuernberg,     Germany     (CCSD(R12))
  Christian B. Nielsen,     University of Copenhagen,     Denmark     (QM/MM)
  Patrick Norman,           Linkoeping University,        Sweden      (Cubic response and complex frequency response in RESPONS)
  Jeppe Olsen,              Aarhus University,            Denmark     (SIRIUS CI/density modules)
  Jogvan Magnus H. Olsen,   Univ. of Southern Denmark,    Denmark     (Polarizable embedding model, QM/MM)
  Anders Osted,             Copenhagen University,        Denmark     (QM/MM)
  Martin J. Packer,         University of Sheffield,      UK          (SOPPA)
  Filip Pawlowski,          Kazimierz Wielki University,  Poland      (CC3)
  Morten N. Pedersen,       Univ. of Southern Denmark,    Denmark     (Polarizable embedding model)
  Thomas B. Pedersen,       University of Oslo,           Norway      (Cholesky decomposition)
  Patricio F. Provasi,      University of Northeastern,   Argentina   (Analysis of coupling constants in localized orbitals)
  Zilvinas Rinkevicius,     KTH Stockholm,                Sweden      (open-shell DFT, ESR)
  Elias Rudberg,            KTH Stockholm,                Sweden      (DFT grid and basis info)
  Torgeir A. Ruden,         University of Oslo,           Norway      (Numerical derivatives in ABACUS)
  Kenneth Ruud,             UiT The Arctic U. of Norway,  Norway      (DALTON; ABACUS magnetic properties and much more)
  Pawel Salek,              KTH Stockholm,                Sweden      (DALTON; DFT code)
  Claire C. M. Samson       University of Karlsruhe       Germany     (Boys localization, r12 integrals in ERI)
  Alfredo Sanchez de Meras, University of Valencia,       Spain       (CC module, Cholesky decomposition)
  Trond Saue,               Paul Sabatier University,     France      (direct Fock matrix construction)
  Stephan P. A. Sauer,      University of Copenhagen,     Denmark     (SOPPA(CCSD), SOPPA prop., AOSOPPA, vibrational g-factors)
  Bernd Schimmelpfennig,    Forschungszentrum Karlsruhe,  Germany     (AMFI module)
  Kristian Sneskov,         Aarhus University,            Denmark     (Polarizable embedding model, QM/MM)
  Arnfinn H. Steindal,      UiT The Arctic U. of Norway,  Norway      (parallel QM/MM, Polarizable embedding model)
  Casper Steinmann,         Univ. of Southern Denmark,    Denmark     (QFIT, Polarizable embedding model)
  K. O. Sylvester-Hvid,     University of Copenhagen,     Denmark     (MC-SCRF)
  Peter R. Taylor,          VLSCI/Univ. of Melbourne,     Australia   (Symmetry handling ABACUS, integral transformation)
  Andrew M. Teale,          University of Nottingham,     England     (DFT-AC, DFT-D)
  David P. Tew,             University of Bristol,        England     (CCSD(R12))
  Olav Vahtras,             KTH Stockholm,                Sweden      (triplet response, spin-orbit, ESR, TDDFT, open-shell DFT)
  David J. Wilson,          La Trobe University,          Australia   (DFT Hessian and DFT magnetizabilities)
  Hans Agren,               KTH Stockholm,                Sweden      (SIRIUS module, RESPONS, MC-SCRF solvation model)
 --------------------------------------------------------------------------------

     Date and time (Linux)  : Sat Jan 12 22:57:10 2019
     Host name              : n-62-23-24                              

 * Work memory size             :  1280000000 =  9.537 gigabytes.

 * Directories for basis set searches:
   1) /zhome/37/3/129401/NH3NH4/CCSD/AIMD_SAMPLING/nh3_4h2o_nd
   2) /zhome/9a/4/124800/source/dalton/build-mlcc/basis


Compilation information
-----------------------

 Who compiled             | rfaber
 Host                     | hpclogin1
 System                   | Linux-2.6.32-696.1.1.el6.x86_64
 CMake generator          | Unix Makefiles
 Processor                | x86_64
 64-bit integers          | ON
 MPI                      | OFF
 Fortran compiler         | /opt/intel/2016update2/compilers_and_libraries_201
                          | 6.2.181/linux/bin/intel64/ifort
 Fortran compiler version | ifort (IFORT) 16.0.2 20160204
 C compiler               | /opt/intel/2016update2/compilers_and_libraries_201
                          | 6.2.181/linux/bin/intel64/icc
 C compiler version       | icc (ICC) 16.0.2 20160204
 C++ compiler             | /opt/intel/2016update2/compilers_and_libraries_201
                          | 6.2.181/linux/bin/intel64/icpc
 C++ compiler version     | icpc (ICC) 16.0.2 20160204
 Static linking           | OFF
 Last Git revision        | bb4d1599ca5680a9f3980451fc8bbefdba436d59
 Git branch               | mlcc
 Configuration time       | 2017-06-13 16:11:03.928841


   Content of the .dal input file
 ----------------------------------

**DALTON
.RUN WAVE FUNCTIONS
*QMMM
.QMMM
**INTEGRALS
.DIPLEN
**WAVE FUNCTIONS
.CC
*PRINT
!To check the origin of excit
.PRINTL
   0 11
*SCF INP
.THRESH
1.0D-7
*CC INP
.CCSD
.THRLEQ
 1.0D-9
.THRENR
 1.0D-10
.FROIMP
4
0
.PRINT
 1
.MAX IT
 1200
.MAXRED
 1200
.MXLRV
1199
*CCSLV
.CCMM
.MXSLIT
200
.MXINIT
4 5
*CCEXCI
.NCCEXC
 15
.CVSEPARA
1
1
*CCLRSD
.DIPOLE
**END OF DALTON INPUT


   Content of the .mol file
 ----------------------------

ATOMBASIS


Atomtypes=4 Charge=0 Nosymm Angstrom
   7.00000    1    Basis=6-311G**
N          0.000000        0.000000        0.000000
   1.00000    3    Basis=6-311G**
H         -0.926863       -0.022337       -0.441186
H          0.355238       -0.925241       -0.032017
H         -0.133137        0.278360        0.945070
   8.00000    4    Basis=6-311G**
O         -1.526007       -1.415451       -2.045695
O          2.411835       -2.689355       -0.280291
O          0.120024        2.698841       -0.761675
O         -2.737705        0.633214        0.656523
   1.00000    8    Basis=6-311G**
H         -0.674883       -1.681057       -2.554631
H         -2.319145       -1.572580       -2.633913
H          3.373032       -2.842109       -0.696165
H          1.718175       -3.007303       -0.847547
H          0.910426        3.072118       -0.397338
H          0.177925        1.736443       -0.519647
H         -3.356843        1.148186        0.082181
H         -2.215475        1.356663        0.998540


       *******************************************************************
       *********** Output from DALTON general input processing ***********
       *******************************************************************

 --------------------------------------------------------------------------------
   Overall default print level:    0
   Print level for DALTON.STAT:    1

    HERMIT 1- and 2-electron integral sections will be executed
    "Old" integral transformation used (limited to max 255 basis functions)
    Wave function sections will be executed (SIRIUS module)
 --------------------------------------------------------------------------------


 Changes of defaults for *QMMM  :
 --------------------------------

 +------------------+
 |  WORD: | CHANGE: |
 +------------------+
 |   QMMM |       T |
 +------------------+
 


   ****************************************************************************
   *************** Output of molecule and basis set information ***************
   ****************************************************************************


    The two title cards from your ".mol" input:
    ------------------------------------------------------------------------
 1:                                                                         
 2:                                                                         
    ------------------------------------------------------------------------

  Coordinates are entered in Angstrom and converted to atomic units.
          - Conversion factor : 1 bohr = 0.52917721 A

  Atomic type no.    1
  --------------------
  Nuclear charge:   7.00000
  Number of symmetry independent centers:    1
  Number of basis sets to read;    2
  The basis set is "6-311G**" from the basis set library.
  Basis set file used for this atomic type with Z =   7 :
     "/zhome/9a/4/124800/source/dalton/build-mlcc/basis/6-311G**"

  Info about the basis set file: your basis has no documentation.
  Basis set: 6-311G**                                                                        

  Atomic type no.    2
  --------------------
  Nuclear charge:   1.00000
  Number of symmetry independent centers:    3
  Number of basis sets to read;    2
  The basis set is "6-311G**" from the basis set library.
  Basis set file used for this atomic type with Z =   1 :
     "/zhome/9a/4/124800/source/dalton/build-mlcc/basis/6-311G**"

  Info about the basis set file: your basis has no documentation.
  Basis set: 6-311G**                                                                        

  Atomic type no.    3
  --------------------
  Nuclear charge:   8.00000
  Number of symmetry independent centers:    4
  Number of basis sets to read;    2
  The basis set is "6-311G**" from the basis set library.
  Basis set file used for this atomic type with Z =   8 :
     "/zhome/9a/4/124800/source/dalton/build-mlcc/basis/6-311G**"

  Info about the basis set file: your basis has no documentation.
  Basis set: 6-311G**                                                                        

  Atomic type no.    4
  --------------------
  Nuclear charge:   1.00000
  Number of symmetry independent centers:    8
  Number of basis sets to read;    2
  The basis set is "6-311G**" from the basis set library.
  Basis set file used for this atomic type with Z =   1 :
     "/zhome/9a/4/124800/source/dalton/build-mlcc/basis/6-311G**"

  Info about the basis set file: your basis has no documentation.
  Basis set: 6-311G**                                                                        


                         SYMGRP: Point group information
                         -------------------------------

@    Point group: C1 


                                 Isotopic Masses
                                 ---------------

                           N          14.003074
                           H           1.007825
                           H           1.007825
                           H           1.007825
                           O          15.994915
                           O          15.994915
                           O          15.994915
                           O          15.994915
                           H           1.007825
                           H           1.007825
                           H           1.007825
                           H           1.007825
                           H           1.007825
                           H           1.007825
                           H           1.007825
                           H           1.007825

                       Total mass:    89.068809 amu
                       Natural abundance:  98.514 %

 Center-of-mass coordinates (a.u.):   -0.653819   -0.314814   -0.955382


  Atoms and basis sets
  --------------------

  Number of atom types :    4
  Total number of atoms:   16

  label    atoms   charge   prim   cont     basis
  ----------------------------------------------------------------------
  N           1    7.0000    31    18      [11s5p1d|4s3p1d]                                   
  H           3    1.0000     8     6      [5s1p|3s1p]                                        
  O           4    8.0000    31    18      [11s5p1d|4s3p1d]                                   
  H           8    1.0000     8     6      [5s1p|3s1p]                                        
  ----------------------------------------------------------------------
  total:     16   50.0000   243   156
  ----------------------------------------------------------------------
  Spherical harmonic basis used.

  Threshold for neglecting AO integrals:  1.00D-12


  Cartesian Coordinates (a.u.)
  ----------------------------

  Total number of coordinates:   48
  N       :     1  x   0.0000000000    2  y   0.0000000000    3  z   0.0000000000
  H       :     4  x  -1.7515172254    5  y  -0.0422108125    6  z  -0.8337207102
  H       :     7  x   0.6713025292    8  y  -1.7484520896    9  z  -0.0605033613
  H       :    10  x  -0.2515924671   11  y   0.5260241642   12  z   1.7859234689
  O       :    13  x  -2.8837352948   14  y  -2.6748147333   15  z  -3.8658032853
  O       :    16  x   4.5577076087   17  y  -5.0821444029   18  z  -0.5296732253
  O       :    19  x   0.2268124884   20  y   5.1000703449   21  z  -1.4393571463
  O       :    22  x  -5.1735126610   23  y   1.1966010385   24  z   1.2406486648
  H       :    25  x  -1.2753440364   26  y  -3.1767373305   27  z  -4.8275529404
  H       :    28  x  -4.3825488941   29  y  -2.9717455096   30  z  -4.9773742071
  H       :    31  x   6.3741066908   32  y  -5.3708076274   33  z  -1.3155611878
  H       :    34  x   3.2468801848   35  y  -5.6829790449   36  z  -1.6016317081
  H       :    37  x   1.7204557971   38  y   5.8054616437   39  z  -0.7508599991
  H       :    40  x   0.3362295208   41  y   3.2814017017   42  z  -0.9819905117
  H       :    43  x  -6.3435139146   44  y   2.1697570806   45  z   0.1552995827
  H       :    46  x  -4.1866409868   47  y   2.5637215139   48  z   1.8869671249


   Interatomic separations (in Angstrom):
   --------------------------------------

            N           H           H           H           O           O     
            ------      ------      ------      ------      ------      ------
 N     :    0.000000
 H     :    1.026752    0.000000
 H     :    0.991610    1.620629    0.000000
 H     :    0.994167    1.625462    1.625381    0.000000
 O     :    2.918401    2.207757    2.798980    3.708606    0.000000
 O     :    3.623278    4.276187    2.720906    4.097038    4.499565    0.000000
 O     :    2.806830    2.933172    3.704281    2.972507    4.613624    5.875099
 O     :    2.885656    2.216723    3.531171    2.644420    3.601003    6.199584
 H     :    3.131702    2.698425    2.827718    4.047309    1.026633    3.964482
 H     :    3.845639    3.024856    3.786982    4.584073    0.999879    5.400824
 H     :    4.465375    5.148323    3.636283    4.972344    5.277989    1.058388
 H     :    3.565716    4.008912    2.618715    4.175693    3.807134    0.950807
 H     :    3.228725    3.599056    4.052231    3.270499    5.365777    5.955040
 H     :    1.821243    2.078466    2.711786    2.090015    3.894437    4.963399
 H     :    3.548729    2.747515    4.253432    3.448689    3.801585    6.937993
 H     :    2.783154    2.373810    3.588551    2.345576    4.174608    6.278349

            O           O           H           H           H           H     
            ------      ------      ------      ------      ------      ------
 O     :    0.000000
 O     :    3.800620    0.000000
 H     :    4.798966    4.463473    0.000000
 H     :    5.263065    3.983427    1.649743    0.000000
 H     :    6.425611    7.158823    4.602994    6.145523    0.000000
 H     :    5.926343    5.947307    3.224871    4.642142    1.669957    0.000000
 H     :    0.947002    4.513063    5.455253    6.083224    6.413408    6.149350
 H     :    0.994052    3.331875    4.067892    4.653505    5.585965    4.998301
 H     :    3.899388    0.989139    4.706411    3.982029    7.862537    6.624824
 H     :    3.217818    0.955551    4.922011    4.667540    7.192574    6.158396

            H           H           H           H     
            ------      ------      ------      ------
 H     :    0.000000
 H     :    1.528249    0.000000
 H     :    4.705426    3.633570    0.000000
 H     :    3.829167    2.859631    1.478478    0.000000


  Max    interatomic separation is    7.8625 Angstrom (   14.8580 Bohr)
  between atoms   15 and   11, "H     " and "H     ".

  Min HX interatomic separation is    0.9470 Angstrom (    1.7896 Bohr)

  Min YX interatomic separation is    2.8068 Angstrom (    5.3041 Bohr)


  Bond distances (Angstrom):
  --------------------------

                  atom 1     atom 2       distance
                  ------     ------       --------
  bond distance:  H          N            1.026752
  bond distance:  H          N            0.991610
  bond distance:  H          N            0.994167
  bond distance:  H          O            1.026633
  bond distance:  H          O            0.999879
  bond distance:  H          O            1.058388
  bond distance:  H          O            0.950807
  bond distance:  H          O            0.947002
  bond distance:  H          O            0.994052
  bond distance:  H          O            0.989139
  bond distance:  H          O            0.955551


  Bond angles (degrees):
  ----------------------

                  atom 1     atom 2     atom 3         angle
                  ------     ------     ------         -----
  bond angle:     H          N          H            106.811
  bond angle:     H          N          H            107.078
  bond angle:     H          N          H            109.872
  bond angle:     H          O          H            108.986
  bond angle:     H          O          H            112.325
  bond angle:     H          O          H            103.847
  bond angle:     H          O          H             98.960




 Principal moments of inertia (u*A**2) and principal axes
 --------------------------------------------------------

   IA     256.705478         -0.649777    0.754034    0.096037
   IB     479.925015          0.756085    0.628136    0.183794
   IC     592.592772         -0.078263   -0.192037    0.978262


 Rotational constants
 --------------------

               A                   B                   C

           1968.7114           1053.0374            852.8268 MHz
            0.065669            0.035126            0.028447 cm-1


@  Nuclear repulsion energy :  185.850409602849 Hartree


                     .---------------------------------------.
                     | Starting in Integral Section (HERMIT) |
                     `---------------------------------------'



 ***************************************************************************************
 ****************** Output from **INTEGRALS input processing (HERMIT) ******************
 ***************************************************************************************



    *************************************************************************
    ****************** Output from HERMIT input processing ******************
    *************************************************************************


 Default print level:        1

 * Nuclear model: Point charge

 Calculation of one- and two-electron Hamiltonian integrals.

 The following one-electron property integrals are calculated as requested:
          - overlap integrals
          - dipole length integrals

 Center of mass  (bohr):     -0.653819248902     -0.314813956631     -0.955382200645
 Operator center (bohr):      0.000000000000      0.000000000000      0.000000000000
 Gauge origin    (bohr):      0.000000000000      0.000000000000      0.000000000000
 Dipole origin   (bohr):      0.000000000000      0.000000000000      0.000000000000
 
  *********************************** 
  QMMM electrostatic potential: 
  Multipole order                                    0
  Isotropic polarization  
  *********************************** 
 
  ---------------- 
  QMMM information 
  ---------------- 
 
  MM coordinates in au 
  -------------------- 
     1     -9.223557      5.012882      8.827659
     2    -10.696842      4.975303      7.609088
     3     -9.949845      5.813729     10.356022
     4     -9.084705     -6.648315      4.713247
     5     -7.861183     -8.032287      4.991421
     6     -8.022683     -5.044768      4.686430
     7     -1.643056      1.189962      6.784680
     8      0.251787      0.913284      6.439727
     9     -1.948842      2.714053      5.664832
    10     -5.429557      8.152906      7.033644
    11     -7.017857      7.321462      7.743393
    12     -5.728879      9.742810      6.006083
    13     -5.606542     -3.787954      0.459474
    14     -5.254873     -1.959032      0.710441
    15     -4.830741     -4.140845     -1.208196
    16      6.848526      0.168834     -1.136842
    17      6.221235      1.385759     -2.399941
    18      5.577583     -1.198387     -1.297539
    19    -10.931276      5.477736     -9.756042
    20    -12.453824      6.462213     -9.289542
    21     -9.764481      5.421798     -8.360560
    22      3.511808     -9.152186     11.245634
    23      2.575906     -7.683351     11.588623
    24      4.397058     -8.903139      9.542932
    25     10.517063     -7.029133     -7.425734
    26     10.155931     -5.781305     -8.688301
    27      9.270815     -8.396947     -7.568467
    28     -3.373120      3.187050     -8.524496
    29     -2.776786      3.930867    -10.272542
    30     -4.292284      1.433879     -9.083095
    31     -0.646271      9.878532     -8.638273
    32     -0.722677     10.302314    -10.460577
    33      0.013232      8.145664     -8.367849
    34     -8.884797      3.016534     -1.558172
    35     -8.363431      3.383298     -3.243632
    36     -9.988832      4.385540     -0.939181
    37     -8.589831     11.414891      0.145768
    38    -10.023028     12.560824      0.050796
    39     -7.756906     11.977449     -1.477722
    40     10.277725      5.629551      5.305113
    41      9.438039      6.815957      6.554929
    42      9.238198      4.221864      4.796754
    43      4.983215     -0.784231     -6.362927
    44      4.239124      0.058079     -7.760259
    45      3.854782     -2.213559     -6.217050
    46     -5.155332    -10.486738     10.300007
    47     -6.563735    -11.025103      9.213547
    48     -5.667506    -11.324133     11.939001
    49    -11.450703      7.089255      0.422683
    50    -10.303327      8.596693      0.031689
    51    -11.844809      6.953621      2.260706
    52     -4.115648     -4.329776     10.405786
    53     -4.882710     -3.225437     11.839652
    54     -4.588452     -6.119292     10.851386
    55      5.651691     -8.479473      6.665353
    56      5.949771     -9.915692      5.440355
    57      4.693838     -7.136581      5.757725
    58     10.135480     -6.449507      8.256760
    59     11.395848     -5.896042      7.024501
    60      8.624593     -6.978422      7.393476
    61      4.386831      7.300647     10.127396
    62      2.816117      8.151158     10.785755
    63      4.497524      5.662277     11.160985
    64    -11.572817    -10.759747     10.536999
    65    -12.196243     -9.230101      9.652449
    66    -12.167884    -10.438823     12.263633
    67      6.640872     11.477809      3.071317
    68      8.121837     12.252950      2.147243
    69      7.684450     10.599228      4.523940
    70      3.320753     -0.278687      5.800089
    71      4.249958     -0.183156      7.397450
    72      4.553964      0.632140      4.754802
    73      0.076842     -9.484216     -5.531002
    74      0.010717    -10.998164     -6.803607
    75     -0.971244     -9.973013     -4.001506
    76      0.725343      5.395599     -6.680860
    77     -0.723245      4.230796     -6.857931
    78      1.361005      5.473129     -4.920592
    79    -10.438960     -2.104374     -1.134741
    80     -8.936135     -2.860053     -0.255926
    81    -10.061318     -0.301228     -1.394225
    82      8.808168      9.603380      8.073520
    83      7.078958      9.201787      8.810115
    84      9.970919     10.427787      9.364606
    85      6.285947      2.839336      3.016035
    86      5.059479      4.231223      2.692935
    87      6.668358      1.815226      1.493755
    88      4.560302      3.774533     -9.780472
    89      5.983234      4.655321     -8.851836
    90      3.083922      4.297645     -8.741571
    91      0.853404     -4.437043     -6.539930
    92      0.941471     -4.041319     -8.296414
    93      0.528528     -6.254532     -6.399087
    94      8.080040      7.399009     -7.663839
    95      8.370092      7.025688     -5.891340
    96      7.633105      9.205746     -8.045106
    97      8.951969      5.313861     -3.230370
    98      9.349324      3.591600     -3.822400
    99     10.344886      5.789021     -2.057067
   100      6.788320    -10.567819     -8.743613
   101      5.399303    -10.469514    -10.028729
   102      5.856530    -10.803991     -7.168531
   103     -2.343827     -7.069397      3.005789
   104     -0.744546     -6.430515      3.567281
   105     -3.303959     -5.543275      2.786507
   106      1.305812     -4.121090     11.399229
   107      2.576859     -2.884678     10.748382
   108     -0.378743     -3.662833     10.623659
   109      9.643896     -5.296148     -2.227139
   110     10.774946     -3.754277     -1.955617
   111      9.970766     -5.838413     -4.085329
   112     -3.087996      5.354671      4.081344
   113     -4.198917      6.366381      5.226529
   114     -1.364630      6.099715      4.078125
   115     -0.284695     11.177734      9.870470
   116      0.826126     12.536456     10.454543
   117     -1.926995     12.061642      9.454918
   118     -3.619209      8.067698     -1.293724
   119     -2.028186      6.947104     -1.315631
   120     -4.515238      7.957531      0.381343
   121     -6.833921     -9.853586     -4.444182
   122     -6.773274    -10.385782     -6.168453
   123     -5.034385     -9.953102     -4.013325
   124      5.020001    -10.490696     -3.209494
   125      5.159910    -12.267397     -2.443019
   126      3.145544    -10.394711     -3.679163
   127     -6.809437      6.012759     -6.004890
   128     -5.926990      6.834773     -4.479762
   129     -5.407642      5.076585     -6.949821
   130     -0.313891     10.755089      4.553696
   131     -0.009269     11.308365      6.262331
   132      0.393091     12.153607      3.506564
   133      5.138808     -0.404445     10.510742
   134      6.723869     -1.376029     11.155703
   135      5.087145      1.118004     11.640184
   136     11.194775     -8.754368      1.332718
   137     12.463749     -7.718076      2.202179
   138     10.499691     -7.703144     -0.028958
   139      2.447184      5.988285      4.625091
   140      2.175759      7.676608      4.034082
   141      2.735840      6.330773      6.396171
   142     10.404721      0.719402     -6.525073
   143      8.777343     -0.094840     -6.757067
   144     10.674307      1.725877     -7.982468
   145      5.168414      7.896398     -0.524635
   146      5.647348      8.865397      0.964594
   147      6.661938      6.914680     -0.966340
   148     -6.119372     10.923551     -8.725603
   149     -4.439983     10.072960     -8.683581
   150     -7.216261      9.557260     -8.758909
   151     -2.796184    -10.513699     -1.433433
   152     -2.918952    -12.450018     -1.451380
   153     -2.698353     -9.935664      0.292411
   154     -6.372502     -1.087566     -9.877676
   155     -7.813267     -0.710095    -11.121123
   156     -7.164664     -1.888651     -8.361072
   157      9.277112     -3.013760    -11.658391
   158     10.696402     -1.984350    -11.137993
   159      9.975821     -4.046136    -13.141836
   160      2.518024     -5.386067      4.254709
   161      2.613387     -3.557646      4.895547
   162      3.341994     -5.303635      2.578760
   163     -6.009378    -10.891087      4.203000
   164     -6.852812    -11.436020      2.483463
   165     -4.236551    -10.136918      3.874475
   166     -1.089735      5.179775     10.587637
   167     -1.172809      3.577622      9.478539
   168     -2.545217      6.036923      9.709721
   169     -6.058791     -2.341378      5.924785
   170     -5.455808     -1.050642      4.787177
   171     -4.714364     -2.500295      7.266955
   172     -9.071103     -0.156044      9.672059
   173     -8.172141     -0.690355      8.146670
   174     -9.161957      1.680127      9.555136
   175     -7.811470     -4.174110     -5.616359
   176     -7.655572     -5.978799     -5.423926
   177     -9.050178     -3.552836     -4.434229
 
  MM charges 
  ---------- 
     1     -0.674440
     2      0.337220
     3      0.337220
     4     -0.674440
     5      0.337220
     6      0.337220
     7     -0.674440
     8      0.337220
     9      0.337220
    10     -0.674440
    11      0.337220
    12      0.337220
    13     -0.674440
    14      0.337220
    15      0.337220
    16     -0.674440
    17      0.337220
    18      0.337220
    19     -0.674440
    20      0.337220
    21      0.337220
    22     -0.674440
    23      0.337220
    24      0.337220
    25     -0.674440
    26      0.337220
    27      0.337220
    28     -0.674440
    29      0.337220
    30      0.337220
    31     -0.674440
    32      0.337220
    33      0.337220
    34     -0.674440
    35      0.337220
    36      0.337220
    37     -0.674440
    38      0.337220
    39      0.337220
    40     -0.674440
    41      0.337220
    42      0.337220
    43     -0.674440
    44      0.337220
    45      0.337220
    46     -0.674440
    47      0.337220
    48      0.337220
    49     -0.674440
    50      0.337220
    51      0.337220
    52     -0.674440
    53      0.337220
    54      0.337220
    55     -0.674440
    56      0.337220
    57      0.337220
    58     -0.674440
    59      0.337220
    60      0.337220
    61     -0.674440
    62      0.337220
    63      0.337220
    64     -0.674440
    65      0.337220
    66      0.337220
    67     -0.674440
    68      0.337220
    69      0.337220
    70     -0.674440
    71      0.337220
    72      0.337220
    73     -0.674440
    74      0.337220
    75      0.337220
    76     -0.674440
    77      0.337220
    78      0.337220
    79     -0.674440
    80      0.337220
    81      0.337220
    82     -0.674440
    83      0.337220
    84      0.337220
    85     -0.674440
    86      0.337220
    87      0.337220
    88     -0.674440
    89      0.337220
    90      0.337220
    91     -0.674440
    92      0.337220
    93      0.337220
    94     -0.674440
    95      0.337220
    96      0.337220
    97     -0.674440
    98      0.337220
    99      0.337220
   100     -0.674440
   101      0.337220
   102      0.337220
   103     -0.674440
   104      0.337220
   105      0.337220
   106     -0.674440
   107      0.337220
   108      0.337220
   109     -0.674440
   110      0.337220
   111      0.337220
   112     -0.674440
   113      0.337220
   114      0.337220
   115     -0.674440
   116      0.337220
   117      0.337220
   118     -0.674440
   119      0.337220
   120      0.337220
   121     -0.674440
   122      0.337220
   123      0.337220
   124     -0.674440
   125      0.337220
   126      0.337220
   127     -0.674440
   128      0.337220
   129      0.337220
   130     -0.674440
   131      0.337220
   132      0.337220
   133     -0.674440
   134      0.337220
   135      0.337220
   136     -0.674440
   137      0.337220
   138      0.337220
   139     -0.674440
   140      0.337220
   141      0.337220
   142     -0.674440
   143      0.337220
   144      0.337220
   145     -0.674440
   146      0.337220
   147      0.337220
   148     -0.674440
   149      0.337220
   150      0.337220
   151     -0.674440
   152      0.337220
   153      0.337220
   154     -0.674440
   155      0.337220
   156      0.337220
   157     -0.674440
   158      0.337220
   159      0.337220
   160     -0.674440
   161      0.337220
   162      0.337220
   163     -0.674440
   164      0.337220
   165      0.337220
   166     -0.674440
   167      0.337220
   168      0.337220
   169     -0.674440
   170      0.337220
   171      0.337220
   172     -0.674440
   173      0.337220
   174      0.337220
   175     -0.674440
   176      0.337220
   177      0.337220
 
  MM isotropic polarizabilities in au 
  ----------------------------------- 
     1      5.739350
     2      2.308390
     3      2.308390
     4      5.739350
     5      2.308390
     6      2.308390
     7      5.739350
     8      2.308390
     9      2.308390
    10      5.739350
    11      2.308390
    12      2.308390
    13      5.739350
    14      2.308390
    15      2.308390
    16      5.739350
    17      2.308390
    18      2.308390
    19      5.739350
    20      2.308390
    21      2.308390
    22      5.739350
    23      2.308390
    24      2.308390
    25      5.739350
    26      2.308390
    27      2.308390
    28      5.739350
    29      2.308390
    30      2.308390
    31      5.739350
    32      2.308390
    33      2.308390
    34      5.739350
    35      2.308390
    36      2.308390
    37      5.739350
    38      2.308390
    39      2.308390
    40      5.739350
    41      2.308390
    42      2.308390
    43      5.739350
    44      2.308390
    45      2.308390
    46      5.739350
    47      2.308390
    48      2.308390
    49      5.739350
    50      2.308390
    51      2.308390
    52      5.739350
    53      2.308390
    54      2.308390
    55      5.739350
    56      2.308390
    57      2.308390
    58      5.739350
    59      2.308390
    60      2.308390
    61      5.739350
    62      2.308390
    63      2.308390
    64      5.739350
    65      2.308390
    66      2.308390
    67      5.739350
    68      2.308390
    69      2.308390
    70      5.739350
    71      2.308390
    72      2.308390
    73      5.739350
    74      2.308390
    75      2.308390
    76      5.739350
    77      2.308390
    78      2.308390
    79      5.739350
    80      2.308390
    81      2.308390
    82      5.739350
    83      2.308390
    84      2.308390
    85      5.739350
    86      2.308390
    87      2.308390
    88      5.739350
    89      2.308390
    90      2.308390
    91      5.739350
    92      2.308390
    93      2.308390
    94      5.739350
    95      2.308390
    96      2.308390
    97      5.739350
    98      2.308390
    99      2.308390
   100      5.739350
   101      2.308390
   102      2.308390
   103      5.739350
   104      2.308390
   105      2.308390
   106      5.739350
   107      2.308390
   108      2.308390
   109      5.739350
   110      2.308390
   111      2.308390
   112      5.739350
   113      2.308390
   114      2.308390
   115      5.739350
   116      2.308390
   117      2.308390
   118      5.739350
   119      2.308390
   120      2.308390
   121      5.739350
   122      2.308390
   123      2.308390
   124      5.739350
   125      2.308390
   126      2.308390
   127      5.739350
   128      2.308390
   129      2.308390
   130      5.739350
   131      2.308390
   132      2.308390
   133      5.739350
   134      2.308390
   135      2.308390
   136      5.739350
   137      2.308390
   138      2.308390
   139      5.739350
   140      2.308390
   141      2.308390
   142      5.739350
   143      2.308390
   144      2.308390
   145      5.739350
   146      2.308390
   147      2.308390
   148      5.739350
   149      2.308390
   150      2.308390
   151      5.739350
   152      2.308390
   153      2.308390
   154      5.739350
   155      2.308390
   156      2.308390
   157      5.739350
   158      2.308390
   159      2.308390
   160      5.739350
   161      2.308390
   162      2.308390
   163      5.739350
   164      2.308390
   165      2.308390
   166      5.739350
   167      2.308390
   168      2.308390
   169      5.739350
   170      2.308390
   171      2.308390
   172      5.739350
   173      2.308390
   174      2.308390
   175      5.739350
   176      2.308390
   177      2.308390


     ************************************************************************
     ************************** Output from HERINT **************************
     ************************************************************************



                      Nuclear contribution to dipole moments
                      --------------------------------------

                 au               Debye          C m (/(10**-30)

      x    -32.02400567       -81.39689817      -271.51082691
      y    -16.32886833       -41.50384079      -138.44191102
      z    -48.27448439      -122.70149244      -409.28812306


  Time used in HUCKEL     is       0.74 seconds
  Time used in OVERLAP    is       0.14 seconds
  Time used in POPOVLP    is       0.28 seconds
  Time used in DIPLEN     is       0.51 seconds
  Time used in QUADRUP    is       0.53 seconds
  Time used in KINENE     is       0.26 seconds

 Threshold for neglecting two-electron integrals:  1.00D-12
 HERMIT - Number of two-electron integrals written:    29708851 ( 39.6% )
 HERMIT - Megabytes written:                            340.181

  Time used in TWOINT     is      14.62 seconds
  Total CPU  time used in HERMIT:  17.14 seconds
  Total wall time used in HERMIT:   6.21 seconds


                        .----------------------------------.
                        | End of Integral Section (HERMIT) |
                        `----------------------------------'



                   .--------------------------------------------.
                   | Starting in Wave Function Section (SIRIUS) |
                   `--------------------------------------------'

NCCEXCI for singlet:   15
 CCSD_INPUT: core-val requested
 Requested number of core orbs per sym
                     1
 Indices of requested core orbs
                     1

 *** Output from Huckel module :

     Using EWMO model:          T
     Using EHT  model:          F
     Number of Huckel orbitals each symmetry:   36

 EWMO - Energy Weighted Maximum Overlap - is a Huckel type method,
        which normally is better than Extended Huckel Theory.
 Reference: Linderberg and Ohrn, Propagators in Quantum Chemistry (Wiley, 1973)

 Huckel EWMO eigenvalues for symmetry :  1
          -20.684900     -20.684679     -20.684352     -20.684168     -15.674393
           -1.753218      -1.595839      -1.590597      -1.570006      -1.461098
           -0.832307      -0.796506      -0.785388      -0.775525      -0.749443
           -0.705903      -0.693977      -0.680885      -0.670204      -0.651108
           -0.616370      -0.611176      -0.610204      -0.585247      -0.514614
           -0.262690      -0.249921      -0.236442      -0.218907      -0.185201
           -0.178286      -0.175038      -0.169363      -0.155535      -0.145413
           -0.136899

 **********************************************************************
 *SIRIUS* a direct, restricted step, second order MCSCF program       *
 **********************************************************************

 
     Date and time (Linux)  : Sat Jan 12 22:57:17 2019
     Host name              : n-62-23-24                              

 Title lines from ".mol" input file:
                                                                             
                                                                             

 Print level on unit LUPRI =   2 is   0
 Print level on unit LUW4  =   2 is  11

@    (Integral direct) CC calculation.

@    This is a combination run starting with
@              a restricted, closed shell Hartree-Fock calculation


 Initial molecular orbitals are obtained according to
 ".MOSTART EWMO  " input option

@    QM part is embedded in an environment :

@         Model: QMMM

     Wave function specification
     ============================

     For the specification of the Coupled Cluster: see later.

@    Wave function type        --- CC ---
@    Number of closed shell electrons          50
@    Number of electrons in active shells       0
@    Total charge of the molecule               0

@    Spin multiplicity and 2 M_S                1         0
@    Total number of symmetries                 1 (point group: C1 )
@    Reference state symmetry                   1 (irrep name : A  )

     Orbital specifications
     ======================
@    Abelian symmetry species          All |    1
@                                          |  A  
                                       --- |  ---
@    Occupied SCF orbitals              25 |   25
@    Secondary orbitals                131 |  131
@    Total number of orbitals          156 |  156
@    Number of basis functions         156 |  156

     Optimization information
     ========================
@    Number of configurations                 1
@    Number of orbital rotations           3275
     ------------------------------------------
@    Total number of variables             3276

     Maximum number of Fock   iterations      0
     Maximum number of DIIS   iterations     60
     Maximum number of QC-SCF iterations     60
     Threshold for SCF convergence     1.00D-07


 Changes of defaults for CC:
 ---------------------------


 -Implicit frozen core calculation
 -Excitation energies calculated
 -One-photon absorption strengths will be calculated
 -Oscillator strengths calculated
  
* Read MO coefficients from SIRIUS.RST with label "NEWORB  " and header info: 12Jan19  REORTHO 


 ***********************************************
 ***** DIIS acceleration of SCF iterations *****
 ***********************************************

 C1-DIIS algorithm; max error vectors =    8
 -----------------------------------------------------------------------------

 *** DIIS iteration number    1
 RDSUPM called. NFMAT, ISYMDM(1:NFMAT)                     1
                     1

Calculating AOSUPINT
     (Precalculated two-electron integrals are transformed to P-supermatrix elements.
      Threshold for discarding integrals :  1.00D-12 )
  CPU  time used in FORMSUP    is   6.44 seconds
  WALL time used in FORMSUP    is   9.25 seconds

 ITDIIS, energy, error norm, change in energy, scr.thr., difden:
@ DIIS iter.   1    -359.889077446        3.79486D+00   -3.60D+02  -20    F

 (DIIS_RED) Control Parameters C2DIIS =         F NEVC =    1


 (DIIS_RED) B matrix:

               Column   1
       1      14.40095798
    ==== End of matrix output ====

 DIIS C vector; C2DIIS = F, LAMBDA = -1.44D+01
    1.000000
* Read MO coefficients from SIRIUS.RST with label "NEWORB  " and header info: 12Jan19  DIIS   1
      Virial theorem: -V/T =      1.997888
@      MULPOP N      -0.41; H       0.16; H       0.15; H       0.18; O      -0.59; O      -0.64; O      -0.80; O      -0.64; H       0.32; H       0.30; 
@             H       0.32; H       0.34; H       0.33; H       0.32; H       0.32; H       0.34; 
   1  Level shift: doubly occupied orbital energies shifted by -2.00D-01

 DIIS Fock eigenvalues in symmetry 1
      -20.72644      -20.70745      -20.69897      -20.61734      -15.95812
       -1.54900       -1.54536       -1.52515       -1.51647       -1.44346
       -0.96447       -0.94066       -0.93505       -0.91201       -0.90220
       -0.90136       -0.80480       -0.79414       -0.79182       -0.76678
       -0.75614       -0.74308       -0.73082       -0.72922       -0.71763
        0.09496        0.14265        0.16658        0.20438        0.20893
        0.23611        0.24260        0.28765        0.29898        0.31819
        0.35192        0.45001        0.45184        0.51878        0.52861
        0.54215        0.55777        0.56635        0.58182        0.59460
        0.62981        0.66429        0.82564        0.86897        0.89105
        0.93636        0.95165        0.95850        0.97482        0.98157
        1.01593        1.04358        1.08084        1.09860        1.11701
        1.14186        1.16185        1.22846        1.25985        1.29811
        1.30602        1.35337        1.38668        1.44154        1.44634
        1.45810        1.47834        1.51560        1.51688        1.56482
        1.56844        1.58326        1.64368        1.68458        1.69268
        1.71315        1.77394        1.78913        1.81445        1.83476
        1.86173        1.91443        1.93572        1.98090        2.08804
        2.13732        2.17195        2.18808        2.20627        2.27084
        2.28523        2.29973        2.37146        2.39201        2.52873
        2.56901        2.58465        2.59022        2.60767        2.66494
        2.72641        2.73292        2.76496        2.76801        2.85098
        2.87979        2.91827        2.98233        3.15521        3.34233
        3.35870        3.38237        3.40061        3.46843        3.48236
        3.48815        3.49702        3.50991        3.55438        3.56138
        3.60703        3.66416        3.70191        3.96439        3.98324
        3.99076        4.02279        4.13955        4.18042        4.25195
        4.28229        4.42784        5.05769        5.15291        5.31083
        5.33079        5.38048        5.41088        5.63510        5.74665
        5.78146        5.84160        6.05481        6.08489        6.09203
        6.23218       36.84843       51.53560       51.55255       51.58096
       51.70638
 Time used in FCKEIG, thr_jaco:   4.24D-01  4.30D-02  1.66D-04
 CPU and wall times used in FCKEIG, THR_FCKEIG:   4.25D-01  4.30D-02  3.79D-02
 -----------------------------------------------------------------------------

 *** DIIS iteration number    2
 RDSUPM called. NFMAT, ISYMDM(1:NFMAT)                     1
                     1

 ITDIIS, energy, error norm, change in energy, scr.thr., difden:
@ DIIS iter.   2    -360.682677344        9.05330D-01   -7.94D-01  -20    F

 (DIIS_RED) Control Parameters C2DIIS =         F NEVC =    2


 (DIIS_RED) B matrix:

               Column   1     Column   2
       1      14.40095798
       2       1.04669706     0.81962264
    ==== End of matrix output ====

 DIIS C vector; C2DIIS = F, LAMBDA = -8.16D-01
   -0.017298    1.017298
* Read MO coefficients from SIRIUS.RST with label "NEWORB  " and header info: 12Jan19  DIIS   2
      Virial theorem: -V/T =      2.003504
@      MULPOP N      -0.67; H       0.25; H       0.20; H       0.22; O      -0.58; O      -0.60; O      -0.65; O      -0.59; H       0.32; H       0.29; 
@             H       0.35; H       0.27; H       0.27; H       0.31; H       0.32; H       0.29; 
   2  Level shift: doubly occupied orbital energies shifted by -5.00D-02

 DIIS Fock eigenvalues in symmetry 1
      -20.66593      -20.63587      -20.62358      -20.61141      -15.47875
       -1.41087       -1.38834       -1.38463       -1.36535       -1.16525
       -0.77228       -0.76341       -0.73475       -0.73259       -0.67985
       -0.66779       -0.66247       -0.64447       -0.63769       -0.60872
       -0.59520       -0.58388       -0.56419       -0.55921       -0.46326
        0.13356        0.17864        0.19383        0.22809        0.24240
        0.25334        0.28381        0.30564        0.33163        0.34930
        0.38781        0.50049        0.51236        0.54883        0.56923
        0.58851        0.59470        0.59958        0.62503        0.64389
        0.67701        0.72147        0.91719        0.93491        0.94498
        0.95127        0.95955        0.98486        0.99473        1.00747
        1.04869        1.07147        1.10061        1.12008        1.14813
        1.16891        1.19412        1.27398        1.32674        1.34020
        1.36118        1.41714        1.44707        1.49487        1.50432
        1.50598        1.51824        1.54442        1.58743        1.59652
        1.61189        1.63004        1.70156        1.73595        1.74112
        1.76548        1.82856        1.86570        1.88960        1.91064
        1.94081        1.98431        2.00211        2.06208        2.18967
        2.20865        2.23128        2.25601        2.25810        2.33735
        2.34054        2.34304        2.44315        2.50209        2.60500
        2.61915        2.64431        2.65847        2.66516        2.75197
        2.77888        2.82038        2.83318        2.84082        2.93221
        3.03002        3.04277        3.08955        3.27332        3.36738
        3.41555        3.45473        3.49416        3.49967        3.51294
        3.52029        3.53052        3.54905        3.56093        3.58759
        3.62972        3.68158        3.69635        3.98809        3.99788
        4.00568        4.00889        4.16350        4.19744        4.25928
        4.27913        4.61781        5.26465        5.30039        5.30706
        5.31580        5.35592        5.42035        5.63073        5.70451
        5.73875        5.84359        6.05868        6.09915        6.11243
        6.17620       37.17221       51.47774       51.48287       51.51040
       51.53136
 Time used in FCKEIG, thr_jaco:   2.93D-01  3.00D-02  3.95D-05
 CPU and wall times used in FCKEIG, THR_FCKEIG:   2.93D-01  3.00D-02  9.05D-03
 -----------------------------------------------------------------------------

 *** DIIS iteration number    3
 RDSUPM called. NFMAT, ISYMDM(1:NFMAT)                     1
                     1

 ITDIIS, energy, error norm, change in energy, scr.thr., difden:
@ DIIS iter.   3    -360.742496162        3.19104D-01   -5.98D-02  -20    F

 (DIIS_RED) Control Parameters C2DIIS =         F NEVC =    3


 (DIIS_RED) B matrix:

               Column   1     Column   2     Column   3
       1      14.40095798
       2       1.04669706     0.81962264
       3       0.57724944     0.08218287     0.10182721
    ==== End of matrix output ====

 DIIS C vector; C2DIIS = F, LAMBDA = -8.30D-02
   -0.037454    0.050143    0.987311
* Read MO coefficients from SIRIUS.RST with label "NEWORB  " and header info: 12Jan19  DIIS   3
      Virial theorem: -V/T =      2.001526
@      MULPOP N      -0.60; H       0.23; H       0.18; H       0.20; O      -0.65; O      -0.66; O      -0.73; O      -0.65; H       0.36; H       0.31; 
@             H       0.39; H       0.28; H       0.32; H       0.34; H       0.35; H       0.32; 
   3  Level shift: doubly occupied orbital energies shifted by -2.50D-02

 DIIS Fock eigenvalues in symmetry 1
      -20.57517      -20.54723      -20.54512      -20.53477      -15.58262
       -1.35244       -1.35069       -1.34367       -1.32064       -1.17394
       -0.72643       -0.72204       -0.69388       -0.69099       -0.66457
       -0.65461       -0.61159       -0.60267       -0.59660       -0.56604
       -0.53710       -0.52799       -0.51247       -0.51045       -0.46109
        0.13736        0.18235        0.19810        0.23266        0.24374
        0.25633        0.28505        0.30998        0.33612        0.35274
        0.39249        0.50651        0.51279        0.55515        0.57713
        0.59580        0.60335        0.60922        0.63205        0.64840
        0.68340        0.72556        0.91249        0.94125        0.95295
        0.96505        0.97838        0.99241        1.00363        1.02067
        1.05919        1.08119        1.11398        1.13440        1.16392
        1.17411        1.20118        1.28014        1.33228        1.34649
        1.36345        1.42516        1.45491        1.50492        1.51265
        1.51904        1.52986        1.55652        1.59670        1.60868
        1.62059        1.64039        1.71105        1.74618        1.74918
        1.77415        1.83492        1.87195        1.89305        1.91393
        1.94147        1.99118        2.00855        2.06721        2.18311
        2.21688        2.23893        2.25053        2.27054        2.35064
        2.35563        2.35924        2.45663        2.50224        2.61388
        2.63111        2.65317        2.66805        2.67553        2.75667
        2.78486        2.82658        2.84056        2.84094        2.93570
        3.00472        3.03102        3.08103        3.26040        3.38700
        3.44281        3.47948        3.50755        3.51558        3.52097
        3.53244        3.54122        3.55703        3.57648        3.60730
        3.65550        3.71662        3.72448        4.01221        4.02447
        4.03101        4.04125        4.18530        4.22550        4.29858
        4.30722        4.56003        5.21624        5.30733        5.33391
        5.35600        5.36316        5.44176        5.65581        5.76246
        5.77394        5.87322        6.09290        6.12414        6.14067
        6.23498       37.04746       51.51474       51.53264       51.57002
       51.61859
 Time used in FCKEIG, thr_jaco:   2.69D-01  2.70D-02  1.39D-05
 CPU and wall times used in FCKEIG, THR_FCKEIG:   2.69D-01  2.70D-02  3.19D-03
 -----------------------------------------------------------------------------

 *** DIIS iteration number    4
 RDSUPM called. NFMAT, ISYMDM(1:NFMAT)                     1
                     1

 ITDIIS, energy, error norm, change in energy, scr.thr., difden:
@ DIIS iter.   4    -360.750037635        1.16952D-01   -7.54D-03  -20    F

 (DIIS_RED) Control Parameters C2DIIS =         F NEVC =    4


 (DIIS_RED) B matrix:

               Column   1     Column   2     Column   3     Column   4
       1      14.40095798
       2       1.04669706     0.81962264
       3       0.57724944     0.08218287     0.10182721
       4      -0.00874648     0.07439251    -0.00759875     0.01367785
    ==== End of matrix output ====

 DIIS C vector; C2DIIS = F, LAMBDA = -3.89D-03
    0.000622   -0.097310    0.181536    0.915151
* Read MO coefficients from SIRIUS.RST with label "NEWORB  " and header info: 12Jan19  DIIS   4
      Virial theorem: -V/T =      2.002401
@      MULPOP N      -0.67; H       0.25; H       0.20; H       0.22; O      -0.65; O      -0.67; O      -0.72; O      -0.66; H       0.36; H       0.32; 
@             H       0.40; H       0.29; H       0.32; H       0.34; H       0.36; H       0.32; 
   4  Level shift: doubly occupied orbital energies shifted by -1.25D-02

 DIIS Fock eigenvalues in symmetry 1
      -20.57389      -20.55766      -20.55088      -20.54589      -15.53179
       -1.35179       -1.34276       -1.33643       -1.31378       -1.14913
       -0.71807       -0.71576       -0.68425       -0.68258       -0.64508
       -0.63382       -0.60700       -0.59319       -0.58636       -0.55610
       -0.52580       -0.52413       -0.50120       -0.50011       -0.43498
        0.13722        0.18172        0.19718        0.23123        0.24397
        0.25572        0.28699        0.30941        0.33637        0.35413
        0.39482        0.50852        0.51667        0.55383        0.57664
        0.59516        0.60204        0.60712        0.63205        0.64913
        0.68319        0.72701        0.91925        0.94337        0.95473
        0.96344        0.97651        0.99404        1.00280        1.02017
        1.06009        1.08029        1.11129        1.13248        1.16058
        1.17469        1.20162        1.27965        1.33271        1.34605
        1.36645        1.42547        1.45505        1.50429        1.51089
        1.51670        1.52780        1.55521        1.59459        1.60598
        1.61846        1.63936        1.70975        1.74468        1.74732
        1.77355        1.83325        1.87323        1.89635        1.91659
        1.94476        1.99097        2.00846        2.06987        2.19013
        2.21419        2.24057        2.25439        2.26707        2.34742
        2.35144        2.35422        2.45298        2.50805        2.61492
        2.62821        2.65089        2.66696        2.67440        2.75909
        2.78281        2.82700        2.83925        2.84387        2.93748
        3.01767        3.04015        3.08789        3.26868        3.38376
        3.43815        3.47881        3.51087        3.51378        3.52498
        3.53285        3.53829        3.55306        3.57003        3.60399
        3.65119        3.70949        3.71703        4.00757        4.02002
        4.02570        4.03196        4.18167        4.22082        4.28986
        4.30068        4.58090        5.23547        5.32016        5.32957
        5.34430        5.35083        5.43624        5.65026        5.74582
        5.76516        5.86629        6.08445        6.11802        6.13339
        6.21713       37.08506       51.50368       51.51706       51.55626
       51.58451
 Time used in FCKEIG, thr_jaco:   2.45D-01  2.50D-02  5.11D-06
 CPU and wall times used in FCKEIG, THR_FCKEIG:   2.45D-01  2.50D-02  1.17D-03
 -----------------------------------------------------------------------------

 *** DIIS iteration number    5
 RDSUPM called. NFMAT, ISYMDM(1:NFMAT)                     1
                     1

 ITDIIS, energy, error norm, change in energy, scr.thr., difden:
@ DIIS iter.   5    -360.751118376        2.38959D-02   -1.08D-03  -20    F

 (DIIS_RED) Control Parameters C2DIIS =         F NEVC =    5


 (DIIS_RED) B matrix:

               Column   1     Column   2     Column   3     Column   4     Column   5
       1      14.40095798
       2       1.04669706     0.81962264
       3       0.57724944     0.08218287     0.10182721
       4      -0.00874648     0.07439251    -0.00759875     0.01367785
       5       0.01411336     0.00643700     0.00489577     0.00066381     0.00057102
    ==== End of matrix output ====

 DIIS C vector; C2DIIS = F, LAMBDA = -2.88D-04
    0.001281    0.008751   -0.078484   -0.127324    1.195776
* Read MO coefficients from SIRIUS.RST with label "NEWORB  " and header info: 12Jan19  DIIS   5
      Virial theorem: -V/T =      2.002007
@      MULPOP N      -0.66; H       0.25; H       0.19; H       0.21; O      -0.67; O      -0.68; O      -0.73; O      -0.67; H       0.37; H       0.32; 
@             H       0.40; H       0.29; H       0.33; H       0.35; H       0.37; H       0.33; 

 DIIS Fock eigenvalues in symmetry 1
      -20.55969      -20.54002      -20.53524      -20.53104      -15.51676
       -1.33739       -1.32978       -1.32306       -1.30023       -1.13599
       -0.70537       -0.70267       -0.67138       -0.66972       -0.63216
       -0.62102       -0.59312       -0.58042       -0.57366       -0.54311
       -0.51194       -0.50904       -0.48705       -0.48584       -0.42094
        0.13703        0.18169        0.19707        0.23123        0.24394
        0.25555        0.28706        0.30929        0.33650        0.35432
        0.39522        0.50874        0.51685        0.55352        0.57672
        0.59505        0.60203        0.60711        0.63212        0.64926
        0.68338        0.72729        0.92001        0.94412        0.95540
        0.96428        0.97770        0.99482        1.00347        1.02111
        1.06065        1.08050        1.11179        1.13293        1.16119
        1.17509        1.20188        1.27996        1.33298        1.34647
        1.36676        1.42574        1.45526        1.50458        1.51051
        1.51686        1.52788        1.55566        1.59447        1.60644
        1.61805        1.63932        1.70973        1.74453        1.74702
        1.77345        1.83258        1.87303        1.89631        1.91672
        1.94484        1.99076        2.00835        2.07000        2.19032
        2.21354        2.24045        2.25463        2.26683        2.34716
        2.35147        2.35429        2.45295        2.50821        2.61519
        2.62822        2.65026        2.66657        2.67406        2.75909
        2.78184        2.82682        2.83868        2.84376        2.93720
        3.01817        3.04060        3.08824        3.26927        3.38431
        3.43925        3.48041        3.51172        3.51475        3.52585
        3.53369        3.53881        3.55396        3.57136        3.60442
        3.65212        3.71084        3.71807        4.00834        4.02067
        4.02654        4.03344        4.18212        4.22181        4.29150
        4.30171        4.58219        5.23650        5.32128        5.33091
        5.34744        5.35254        5.43771        5.65109        5.74848
        5.76681        5.86750        6.08584        6.11858        6.13435
        6.21964       37.08754       51.50538       51.52008       51.55873
       51.58944
 Time used in FCKEIG, thr_jaco:   2.38D-01  2.40D-02  1.04D-06
 CPU and wall times used in FCKEIG, THR_FCKEIG:   2.38D-01  2.40D-02  2.39D-04
 -----------------------------------------------------------------------------

 *** DIIS iteration number    6
 RDSUPM called. NFMAT, ISYMDM(1:NFMAT)                     1
                     1

 ITDIIS, energy, error norm, change in energy, scr.thr., difden:
@ DIIS iter.   6    -360.751204832        7.14706D-03   -8.65D-05  -20    F

 (DIIS_RED) Control Parameters C2DIIS =         F NEVC =    6


 (DIIS_RED) B matrix:

               Column   1     Column   2     Column   3     Column   4     Column   5     Column   6
       1      14.40095798
       2       1.04669706     0.81962264
       3       0.57724944     0.08218287     0.10182721
       4      -0.00874648     0.07439251    -0.00759875     0.01367785
       5       0.01411336     0.00643700     0.00489577     0.00066381     0.00057102
       6      -0.00292191    -0.00031790     0.00048863     0.00015915     0.00007228     0.00005108
    ==== End of matrix output ====

 DIIS C vector; C2DIIS = F, LAMBDA = -3.17D-05
    0.000450    0.007515   -0.023992   -0.068783    0.123604    0.961207
* Read MO coefficients from SIRIUS.RST with label "NEWORB  " and header info: 12Jan19  DIIS   6
      Virial theorem: -V/T =      2.002152
@      MULPOP N      -0.66; H       0.25; H       0.19; H       0.21; O      -0.67; O      -0.68; O      -0.74; O      -0.67; H       0.37; H       0.32; 
@             H       0.41; H       0.29; H       0.33; H       0.35; H       0.37; H       0.33; 

 DIIS Fock eigenvalues in symmetry 1
      -20.56041      -20.54155      -20.53665      -20.53203      -15.51983
       -1.33772       -1.32996       -1.32334       -1.30065       -1.13696
       -0.70572       -0.70308       -0.67182       -0.67012       -0.63298
       -0.62186       -0.59359       -0.58090       -0.57401       -0.54374
       -0.51201       -0.50923       -0.48724       -0.48613       -0.42171
        0.13690        0.18158        0.19694        0.23115        0.24380
        0.25543        0.28687        0.30916        0.33640        0.35416
        0.39502        0.50845        0.51657        0.55334        0.57650
        0.59488        0.60186        0.60692        0.63189        0.64902
        0.68317        0.72701        0.91946        0.94372        0.95501
        0.96406        0.97750        0.99447        1.00321        1.02085
        1.06035        1.08025        1.11152        1.13269        1.16094
        1.17468        1.20154        1.27964        1.33273        1.34614
        1.36633        1.42542        1.45492        1.50433        1.51026
        1.51661        1.52762        1.55540        1.59421        1.60622
        1.61784        1.63903        1.70949        1.74430        1.74682
        1.77317        1.83236        1.87271        1.89593        1.91641
        1.94444        1.99052        2.00812        2.06963        2.18967
        2.21323        2.24002        2.25399        2.26652        2.34688
        2.35118        2.35397        2.45266        2.50773        2.61486
        2.62806        2.65002        2.66629        2.67375        2.75876
        2.78158        2.82665        2.83840        2.84330        2.93681
        3.01719        3.03981        3.08758        3.26851        3.38403
        3.43874        3.47979        3.51100        3.51419        3.52511
        3.53292        3.53842        3.55345        3.57084        3.60417
        3.65161        3.71044        3.71767        4.00795        4.02029
        4.02611        4.03295        4.18183        4.22128        4.29104
        4.30130        4.58054        5.23494        5.32023        5.33022
        5.34669        5.35166        5.43710        5.65068        5.74771
        5.76604        5.86691        6.08504        6.11815        6.13378
        6.21888       37.08454       51.50466       51.51872       51.55771
       51.58796
 Time used in FCKEIG, thr_jaco:   2.28D-01  2.40D-02  3.12D-07
 CPU and wall times used in FCKEIG, THR_FCKEIG:   2.28D-01  2.40D-02  7.15D-05
 -----------------------------------------------------------------------------

 *** DIIS iteration number    7
 RDSUPM called. NFMAT, ISYMDM(1:NFMAT)                     1
                     1

 ITDIIS, energy, error norm, change in energy, scr.thr., difden:
@ DIIS iter.   7    -360.751210555        2.52815D-03   -5.72D-06  -20    F

 (DIIS_RED) Control Parameters C2DIIS =         F NEVC =    7


 (DIIS_RED) B matrix:

               Column   1     Column   2     Column   3     Column   4     Column   5     Column   6
       1      14.40095798
       2       1.04669706     0.81962264
       3       0.57724944     0.08218287     0.10182721
       4      -0.00874648     0.07439251    -0.00759875     0.01367785
       5       0.01411336     0.00643700     0.00489577     0.00066381     0.00057102
       6      -0.00292191    -0.00031790     0.00048863     0.00015915     0.00007228     0.00005108
       7       0.00104303     0.00005527     0.00007897    -0.00000588     0.00003445    -0.00000048

               Column   7
       7       0.00000639
    ==== End of matrix output ====

 DIIS C vector; C2DIIS = F, LAMBDA = -1.27D-06
   -0.000217   -0.001721    0.011564    0.023768   -0.173385    0.072447    1.067544
* Read MO coefficients from SIRIUS.RST with label "NEWORB  " and header info: 12Jan19  DIIS   7
      Virial theorem: -V/T =      2.002114
@      MULPOP N      -0.66; H       0.25; H       0.20; H       0.21; O      -0.67; O      -0.68; O      -0.74; O      -0.67; H       0.37; H       0.32; 
@             H       0.41; H       0.29; H       0.33; H       0.35; H       0.37; H       0.33; 

 DIIS Fock eigenvalues in symmetry 1
      -20.56020      -20.54100      -20.53619      -20.53178      -15.51915
       -1.33745       -1.32985       -1.32322       -1.30045       -1.13672
       -0.70563       -0.70291       -0.67171       -0.67002       -0.63280
       -0.62172       -0.59341       -0.58088       -0.57399       -0.54365
       -0.51188       -0.50894       -0.48707       -0.48592       -0.42145
        0.13693        0.18163        0.19697        0.23120        0.24384
        0.25545        0.28690        0.30920        0.33643        0.35423
        0.39509        0.50856        0.51665        0.55336        0.57657
        0.59493        0.60191        0.60698        0.63196        0.64909
        0.68326        0.72711        0.91962        0.94386        0.95514
        0.96416        0.97765        0.99460        1.00330        1.02097
        1.06045        1.08033        1.11164        1.13278        1.16105
        1.17481        1.20163        1.27975        1.33283        1.34626
        1.36644        1.42551        1.45501        1.50446        1.51029
        1.51669        1.52770        1.55551        1.59424        1.60635
        1.61786        1.63907        1.70956        1.74436        1.74687
        1.77322        1.83236        1.87275        1.89600        1.91649
        1.94452        1.99057        2.00819        2.06973        2.18981
        2.21325        2.24009        2.25411        2.26656        2.34692
        2.35127        2.35406        2.45270        2.50781        2.61495
        2.62818        2.65004        2.66632        2.67379        2.75880
        2.78156        2.82676        2.83841        2.84337        2.93687
        3.01740        3.04000        3.08773        3.26868        3.38413
        3.43893        3.48005        3.51120        3.51437        3.52532
        3.53314        3.53855        3.55361        3.57106        3.60426
        3.65179        3.71064        3.71785        4.00807        4.02043
        4.02628        4.03318        4.18194        4.22148        4.29128
        4.30146        4.58092        5.23528        5.32049        5.33044
        5.34705        5.35194        5.43728        5.65081        5.74805
        5.76631        5.86708        6.08530        6.11828        6.13393
        6.21922       37.08520       51.50487       51.51916       51.55798
       51.58849
 Time used in FCKEIG, thr_jaco:   2.33D-01  2.30D-02  1.10D-07
 CPU and wall times used in FCKEIG, THR_FCKEIG:   2.33D-01  2.30D-02  2.53D-05
 -----------------------------------------------------------------------------

 *** DIIS iteration number    8
 RDSUPM called. NFMAT, ISYMDM(1:NFMAT)                     1
                     1

 ITDIIS, energy, error norm, change in energy, scr.thr., difden:
@ DIIS iter.   8    -360.751211167        3.73596D-04   -6.12D-07  -20    F

 (DIIS_RED) Control Parameters C2DIIS =         F NEVC =    8


 (DIIS_RED) B matrix:

               Column   1     Column   2     Column   3     Column   4     Column   5     Column   6
       1      14.40095798
       2       1.04669706     0.81962264
       3       0.57724944     0.08218287     0.10182721
       4      -0.00874648     0.07439251    -0.00759875     0.01367785
       5       0.01411336     0.00643700     0.00489577     0.00066381     0.00057102
       6      -0.00292191    -0.00031790     0.00048863     0.00015915     0.00007228     0.00005108
       7       0.00104303     0.00005527     0.00007897    -0.00000588     0.00003445    -0.00000048
       8      -0.00004109    -0.00000085    -0.00000362     0.00000457     0.00000083     0.00000139

               Column   7     Column   8
       7       0.00000639
       8       0.00000021     0.00000014
    ==== End of matrix output ====

 DIIS C vector; C2DIIS = F, LAMBDA = -7.85D-08
    0.000019    0.000094   -0.001158   -0.002255    0.025014   -0.047896   -0.157433    1.183616
* Read MO coefficients from SIRIUS.RST with label "NEWORB  " and header info: 12Jan19  DIIS   8
      Virial theorem: -V/T =      2.002135
@      MULPOP N      -0.66; H       0.25; H       0.20; H       0.21; O      -0.67; O      -0.68; O      -0.74; O      -0.67; H       0.37; H       0.32; 
@             H       0.41; H       0.29; H       0.33; H       0.35; H       0.37; H       0.33; 

 DIIS Fock eigenvalues in symmetry 1
      -20.56023      -20.54096      -20.53629      -20.53180      -15.51918
       -1.33743       -1.32986       -1.32323       -1.30048       -1.13673
       -0.70563       -0.70290       -0.67172       -0.67004       -0.63281
       -0.62174       -0.59340       -0.58091       -0.57402       -0.54370
       -0.51189       -0.50891       -0.48708       -0.48595       -0.42146
        0.13692        0.18163        0.19696        0.23120        0.24383
        0.25545        0.28690        0.30919        0.33643        0.35422
        0.39508        0.50855        0.51664        0.55336        0.57657
        0.59492        0.60190        0.60698        0.63195        0.64908
        0.68325        0.72710        0.91961        0.94385        0.95512
        0.96416        0.97765        0.99459        1.00328        1.02095
        1.06044        1.08033        1.11164        1.13277        1.16104
        1.17480        1.20162        1.27973        1.33282        1.34625
        1.36643        1.42550        1.45499        1.50445        1.51028
        1.51668        1.52769        1.55550        1.59424        1.60636
        1.61785        1.63906        1.70956        1.74435        1.74686
        1.77321        1.83235        1.87273        1.89599        1.91649
        1.94450        1.99056        2.00819        2.06971        2.18979
        2.21323        2.24007        2.25409        2.26655        2.34691
        2.35127        2.35406        2.45269        2.50779        2.61494
        2.62818        2.65003        2.66631        2.67377        2.75879
        2.78156        2.82675        2.83840        2.84336        2.93685
        3.01739        3.03998        3.08771        3.26866        3.38411
        3.43889        3.48005        3.51118        3.51435        3.52529
[...]

 Principal values of diagonalized transition strength matrix:

             a.u.               
 1      -0.00000000
 2       0.00000000
 3       0.00014152

 Principal axis of diagonalized transition strength matrix:


               Column   1     Column   2     Column   3
       1      -0.11389421     0.70706740     0.69791389
       2       0.85949870    -0.28220610     0.42617099
       3       0.49828717     0.64839449    -0.57558187
    ==== End of matrix output ====


 CCSD   oscillator strength matrix for state nr. 13 of symmetry 1
 CCSD  excitation energy:15.14421674


               Column   1     Column   2     Column   3
       1     6.959675D-04   4.249863D-04  -5.739750D-04
       2     4.249863D-04   2.594828D-04  -3.505062D-04
       3    -5.739750D-04  -3.505062D-04   4.733600D-04
    ==== End of matrix output ====

 Principal values of diagonalized oscillator strength matrix:

             a.u.               
 1      -0.00000004
 2       0.00000000
 3       0.00142885

 Principal axis of diagonalized oscillator strength matrix:


               Column   1     Column   2     Column   3
       1      -0.11389421     0.70706740     0.69791389
       2       0.85949870    -0.28220610     0.42617099
       3       0.49828717     0.64839449    -0.57558187
    ==== End of matrix output ====


 CCSD  Transition strength matrix for state nr. 14 of symmetry 1
 CCSD  excitation energy:15.21276620

 Gauge: length

               Column   1     Column   2     Column   3
       1     6.089688D-05  -7.977854D-05   3.383707D-05
       2    -7.977854D-05   1.045145D-04  -4.432808D-05
       3     3.383707D-05  -4.432808D-05   1.879996D-05
    ==== End of matrix output ====

 Principal values of diagonalized transition strength matrix:

             a.u.               
 1      -0.00000000
 2      -0.00000000
 3       0.00018421

 Principal axis of diagonalized transition strength matrix:


               Column   1     Column   2     Column   3
       1      -0.37764920     0.72581028    -0.57496132
       2       0.10206249     0.64978834     0.75323195
       3       0.92030665     0.22577546    -0.31947005
    ==== End of matrix output ====


 CCSD   oscillator strength matrix for state nr. 14 of symmetry 1
 CCSD  excitation energy:15.21276620


               Column   1     Column   2     Column   3
       1       0.00061761    -0.00080910     0.00034317
       2      -0.00080910     0.00105997    -0.00044957
       3       0.00034317    -0.00044957     0.00019067
    ==== End of matrix output ====

 Principal values of diagonalized oscillator strength matrix:

             a.u.               
 1      -0.00000001
 2      -0.00000000
 3       0.00186825

 Principal axis of diagonalized oscillator strength matrix:


               Column   1     Column   2     Column   3
       1      -0.37764920     0.72581028    -0.57496132
       2       0.10206249     0.64978834     0.75323195
       3       0.92030665     0.22577546    -0.31947005
    ==== End of matrix output ====


 CCSD  Transition strength matrix for state nr. 15 of symmetry 1
 CCSD  excitation energy:15.27469503

 Gauge: length

               Column   1     Column   2     Column   3
       1     1.393002D-04  -1.956899D-04   2.672995D-04
       2    -1.956899D-04   2.748785D-04  -3.754722D-04
       3     2.672995D-04  -3.754722D-04   5.128773D-04
    ==== End of matrix output ====

 Principal values of diagonalized transition strength matrix:

             a.u.               
 1      -0.00000001
 2       0.00000000
 3       0.00092707

 Principal axis of diagonalized transition strength matrix:


               Column   1     Column   2     Column   3
       1       0.89874813    -0.20489946     0.38764419
       2       0.40261099     0.73579817    -0.54452313
       3      -0.17365539     0.64545895     0.74379200
    ==== End of matrix output ====


 CCSD   oscillator strength matrix for state nr. 15 of symmetry 1
 CCSD  excitation energy:15.27469503


               Column   1     Column   2     Column   3
       1       0.00141851    -0.00199274     0.00272195
       2      -0.00199274     0.00279912    -0.00382348
       3       0.00272195    -0.00382348     0.00522270
    ==== End of matrix output ====

 Principal values of diagonalized oscillator strength matrix:

             a.u.               
 1      -0.00000010
 2       0.00000000
 3       0.00944044

 Principal axis of diagonalized oscillator strength matrix:


               Column   1     Column   2     Column   3
       1       0.89874813    -0.20489946     0.38764419
       2       0.40261099     0.73579817    -0.54452313
       3      -0.17365539     0.64545895     0.74379200
    ==== End of matrix output ====

  Total time for    135 linear response residues:     113.78 seconds.
  

 *******************************************************************************
 *******************************************************************************
 *                                                                             *
 *                                                                             *
 *                   SUMMARY OF COUPLED CLUSTER CALCULATION                    *
 *                                                                             *
 *                                                                             *
 *******************************************************************************
 *******************************************************************************

                                                                                
                                                                                
            Total SCF   energy:                  -360.7512111881                
            Total MP2   energy:                  -361.8506931689                
            Total CCSD  energy:                  -361.8905231691                
                                                                                
                                                                                
            Total SCF   energy:                  -360.7512111881                
            Total RSTAR energy:                  -361.8905231691                
            Total CCSD  energy:                  -361.8906636120                
                                                                                
                                                                                
            Total SCF   energy:                  -360.7512111881                
            Total RSTAR energy:                  -361.8906636120                
            Total CCSD  energy:                  -361.8906654249                
                                                                                
                                                                                
            Total SCF   energy:                  -360.7512111881                
            Total RSTAR energy:                  -361.8906654249                
            Total CCSD  energy:                  -361.8906655633                
                                                                                
                                                                                
            Total SCF   energy:                  -360.7512111881                
            Total RSTAR energy:                  -361.8906655633                
            Total CCSD  energy:                  -361.8906655707                
                                                                                
                                                                                
            Total SCF   energy:                  -360.7512111881                
            Total RSTAR energy:                  -361.8906655707                
            Total CCSD  energy:                  -361.8906655711                
            CCSD Total  energy:                  -362.2820068496                
            CCSD E(QM/MM)     :                    -0.3860776545                
                                                                                
                                                                                
                                                                                
 +=============================================================================+
 |  sym. | Exci.  |        CCSD       Excitation energies            | ||T1||  |
 |(spin, |        +------------------------------------------------------------+
 | spat) |        |     Hartree    |       eV.      |     cm-1       |    %    |
 +=============================================================================+
 | ^1A   |    1   |    14.8165479  |     403.17878  |   3251856.359  |  88.46  |
 | ^1A   |    2   |    14.8688804  |     404.60282  |   3263342.019  |  88.83  |
 | ^1A   |    3   |    14.9122650  |     405.78337  |   3272863.837  |  88.80  |
 | ^1A   |    4   |    14.9490951  |     406.78557  |   3280947.116  |  88.24  |
 | ^1A   |    5   |    14.9682817  |     407.30766  |   3285158.078  |  88.36  |
 | ^1A   |    6   |    14.9943141  |     408.01604  |   3290871.538  |  88.10  |
 | ^1A   |    7   |    15.0041970  |     408.28497  |   3293040.570  |  88.13  |
 | ^1A   |    8   |    15.0448615  |     409.39151  |   3301965.408  |  88.10  |
 | ^1A   |    9   |    15.0660058  |     409.96687  |   3306606.049  |  88.20  |
 | ^1A   |   10   |    15.0929717  |     410.70065  |   3312524.379  |  88.12  |
 | ^1A   |   11   |    15.0958918  |     410.78011  |   3313165.262  |  88.08  |
 | ^1A   |   12   |    15.1211875  |     411.46844  |   3318717.015  |  88.11  |
 | ^1A   |   13   |    15.1442167  |     412.09510  |   3323771.355  |  88.16  |
 | ^1A   |   14   |    15.2127662  |     413.96043  |   3338816.222  |  87.73  |
 | ^1A   |   15   |    15.2746950  |     415.64560  |   3352408.031  |  88.32  |
 +=============================================================================+
                                                                                
                                                                                
     Total energies in Hartree:                                                 
             1 ^1A       -347.0793812915                                        
             2 ^1A       -347.0270487768                                        
             3 ^1A       -346.9836641780                                        
             4 ^1A       -346.9468340520                                        
             5 ^1A       -346.9276474936                                        
             6 ^1A       -346.9016150574                                        
             7 ^1A       -346.8917322181                                        
             8 ^1A       -346.8510676651                                        
             9 ^1A       -346.8299233483                                        
            10 ^1A       -346.8029574528                                        
            11 ^1A       -346.8000373722                                        
            12 ^1A       -346.7747417247                                        
            13 ^1A       -346.7517124569                                        
            14 ^1A       -346.6831629981                                        
            15 ^1A       -346.6212341614                                        
                                                                                
                                                                                
 +=============================================================================+
 |  sym. | Exci.  |        CCSD       Length   Gauge Oscillator Strength       |
 |(spin, |        +------------------------------------------------------------+
 | spat) |        | Dipole Strength(a.u.) | Oscillator strength  | Direction   |
 +=============================================================================+
 | ^1A   |    1   |        0.0006483      |      0.0064035       |  (Y,Z)      |
 | ^1A   |    2   |        0.0031753      |      0.0314756       |  (Y,Z)      |
 | ^1A   |    3   |        0.0028980      |      0.0288110       |  (Y,Z)      |
 | ^1A   |    4   |        0.0009179      |      0.0091478       |  (Y,Z)      |
 | ^1A   |    5   |        0.0011439      |      0.0114147       |  (Y,Z)      |
 | ^1A   |    6   |        0.0000784      |      0.0007837       |  (Y,Z)      |
 | ^1A   |    7   |        0.0007623      |      0.0076255       |  (Y,Z)      |
 | ^1A   |    8   |        0.0001268      |      0.0012721       |  (Y,Z)      |
 | ^1A   |    9   |        0.0005688      |      0.0057134       |  (Y,Z)      |
 | ^1A   |   10   |        0.0005552      |      0.0055866       |  (Y,Z)      |
 | ^1A   |   11   |        0.0001886      |      0.0018981       |  (Y,Z)      |
 | ^1A   |   12   |        0.0004463      |      0.0044992       |  (Y,Z)      |
 | ^1A   |   13   |        0.0001415      |      0.0014288       |  (Y,Z)      |
 | ^1A   |   14   |        0.0001842      |      0.0018682       |  (Y,Z)      |
 | ^1A   |   15   |        0.0009271      |      0.0094403       |  (Y,Z)      |
 +=============================================================================+

  1 a.u. =        27.21138 eV.  
  1 a.u. =    219474.62934 cm-1.
  

 *******************************************************************************
 *******************************************************************************
 *                                                                             *
 *                                                                             *
 *                      END OF COUPLED CLUSTER CALCULATION                     *
 *                                                                             *
 *                                                                             *
 *******************************************************************************
 *******************************************************************************


 CPU and wall time for CC :  460095.973   48932.745

 
     Date and time (Linux)  : Sun Jan 13 12:35:13 2019
     Host name              : n-62-23-24                              


                      .-------------------------------------.
                      | End of Coupled Cluster Section (CC) |
                      `-------------------------------------'

  Total CPU  time used in DALTON: 128 hours  0 minutes 22 seconds
  Total wall time used in DALTON:  13 hours 38 minutes  3 seconds

 
     Date and time (Linux)  : Sun Jan 13 12:35:13 2019
     Host name              : n-62-23-24                              
  

 +---------------------------------------------------------+ 
 | List of selected calculated molecular properties (a.u.) | 
 +---------------------------------------------------------+ 

  Properties are read from unit number                      4

 CCSD       properties :
 #  1 1 CCSD/MM  Ground state Energy =    -362.2820068496
 #  2 1 E_QM/MM  Ground state Energy =      -0.3860776545
 #  3 1 Sy: 1 Sp: 1 Exc:  1 E_tot:   -347.0793812915 w:     14.8165479036 E_grs:   -361.8959291951
 #  4 1 Exctot   Excited state Energy =    -347.0793812915
 #  5 1 Sy: 1 Sp: 1 Exc:  2 E_tot:   -347.0270487768 w:     14.8688804183 E_grs:   -361.8959291951
 #  6 1 Exctot   Excited state Energy =    -347.0270487768
 #  7 1 Sy: 1 Sp: 1 Exc:  3 E_tot:   -346.9836641780 w:     14.9122650171 E_grs:   -361.8959291951
 #  8 1 Exctot   Excited state Energy =    -346.9836641780
 #  9 1 Sy: 1 Sp: 1 Exc:  4 E_tot:   -346.9468340520 w:     14.9490951431 E_grs:   -361.8959291951
 # 10 1 Exctot   Excited state Energy =    -346.9468340520
 # 11 1 Sy: 1 Sp: 1 Exc:  5 E_tot:   -346.9276474936 w:     14.9682817015 E_grs:   -361.8959291951
 # 12 1 Exctot   Excited state Energy =    -346.9276474936
 # 13 1 Sy: 1 Sp: 1 Exc:  6 E_tot:   -346.9016150574 w:     14.9943141377 E_grs:   -361.8959291951
 # 14 1 Exctot   Excited state Energy =    -346.9016150574
 # 15 1 Sy: 1 Sp: 1 Exc:  7 E_tot:   -346.8917322181 w:     15.0041969770 E_grs:   -361.8959291951
 # 16 1 Exctot   Excited state Energy =    -346.8917322181
 # 17 1 Sy: 1 Sp: 1 Exc:  8 E_tot:   -346.8510676651 w:     15.0448615300 E_grs:   -361.8959291951
 # 18 1 Exctot   Excited state Energy =    -346.8510676651
 # 19 1 Sy: 1 Sp: 1 Exc:  9 E_tot:   -346.8299233483 w:     15.0660058468 E_grs:   -361.8959291951
 # 20 1 Exctot   Excited state Energy =    -346.8299233483
 # 21 1 Sy: 1 Sp: 1 Exc: 10 E_tot:   -346.8029574528 w:     15.0929717423 E_grs:   -361.8959291951
 # 22 1 Exctot   Excited state Energy =    -346.8029574528
 # 23 1 Sy: 1 Sp: 1 Exc: 11 E_tot:   -346.8000373722 w:     15.0958918229 E_grs:   -361.8959291951
 # 24 1 Exctot   Excited state Energy =    -346.8000373722
 # 25 1 Sy: 1 Sp: 1 Exc: 12 E_tot:   -346.7747417247 w:     15.1211874704 E_grs:   -361.8959291951
 # 26 1 Exctot   Excited state Energy =    -346.7747417247
 # 27 1 Sy: 1 Sp: 1 Exc: 13 E_tot:   -346.7517124569 w:     15.1442167382 E_grs:   -361.8959291951
 # 28 1 Exctot   Excited state Energy =    -346.7517124569
 # 29 1 Sy: 1 Sp: 1 Exc: 14 E_tot:   -346.6831629981 w:     15.2127661970 E_grs:   -361.8959291951
 # 30 1 Exctot   Excited state Energy =    -346.6831629981
 # 31 1 Sy: 1 Sp: 1 Exc: 15 E_tot:   -346.6212341614 w:     15.2746950337 E_grs:   -361.8959291951
 # 32 1 Exctot   Excited state Energy =    -346.6212341614
 # 33 1 |<O|XDIPLEN |i(14.816548)>| =     0.00413143
 # 35 1 |<O|XDIPLEN |i(14.868880)>| =     0.01573370
 # 37 1 |<O|XDIPLEN |i(14.912265)>| =     0.03778203
 # 39 1 |<O|XDIPLEN |i(14.949095)>| =     0.02566618
 # 41 1 |<O|XDIPLEN |i(14.968282)>| =     0.01610948
 # 43 1 |<O|XDIPLEN |i(14.994314)>| =     0.00870740
 # 45 1 |<O|XDIPLEN |i(15.004197)>| =     0.02106787
 # 47 1 |<O|XDIPLEN |i(15.044862)>| =     0.00645024
 # 49 1 |<O|XDIPLEN |i(15.066006)>| =     0.01371581
 # 51 1 |<O|XDIPLEN |i(15.092972)>| =     0.01968747
 # 53 1 |<O|XDIPLEN |i(15.095892)>| =     0.00306063
 # 55 1 |<O|XDIPLEN |i(15.121187)>| =     0.01297972
 # 57 1 |<O|XDIPLEN |i(15.144217)>| =     0.00830265
 # 59 1 |<O|XDIPLEN |i(15.212766)>| =     0.00780365
 # 61 1 |<O|XDIPLEN |i(15.274695)>| =     0.01180255
 # 63 1 |<O|YDIPLEN |i(14.816548)>| =     0.01635532
 # 65 1 |<O|YDIPLEN |i(14.868880)>| =     0.03841210
 # 67 1 |<O|YDIPLEN |i(14.912265)>| =     0.01514715
 # 69 1 |<O|YDIPLEN |i(14.949095)>| =     0.00674309
 # 71 1 |<O|YDIPLEN |i(14.968282)>| =     0.02960220
 # 73 1 |<O|YDIPLEN |i(14.994314)>| =     0.00047939
 # 75 1 |<O|YDIPLEN |i(15.004197)>| =     0.01579284
 # 77 1 |<O|YDIPLEN |i(15.044862)>| =     0.00527409
 # 79 1 |<O|YDIPLEN |i(15.066006)>| =     0.01846610
 # 81 1 |<O|YDIPLEN |i(15.092972)>| =     0.01176094
 # 83 1 |<O|YDIPLEN |i(15.095892)>| =     0.01329259
 # 85 1 |<O|YDIPLEN |i(15.121187)>| =     0.00832237
 # 87 1 |<O|YDIPLEN |i(15.144217)>| =     0.00506963
 # 89 1 |<O|YDIPLEN |i(15.212766)>| =     0.01022323
 # 91 1 |<O|YDIPLEN |i(15.274695)>| =     0.01657946
 # 93 1 |<O|ZDIPLEN |i(14.816548)>| =     0.01907136
 # 95 1 |<O|ZDIPLEN |i(14.868880)>| =     0.03810873
 # 97 1 |<O|ZDIPLEN |i(14.912265)>| =     0.03522965
 # 99 1 |<O|ZDIPLEN |i(14.949095)>| =     0.01461764
 #101 1 |<O|ZDIPLEN |i(14.968282)>| =     0.00284343
 #103 1 |<O|ZDIPLEN |i(14.994314)>| =     0.00153343
 #105 1 |<O|ZDIPLEN |i(15.004197)>| =     0.00831053
 #107 1 |<O|ZDIPLEN |i(15.044862)>| =     0.00757682
 #109 1 |<O|ZDIPLEN |i(15.066006)>| =     0.00630229
 #111 1 |<O|ZDIPLEN |i(15.092972)>| =     0.00541340
 #113 1 |<O|ZDIPLEN |i(15.095892)>| =     0.00159416
 #115 1 |<O|ZDIPLEN |i(15.121187)>| =     0.01444214
 #117 1 |<O|ZDIPLEN |i(15.144217)>| =     0.00684728
 #119 1 |<O|ZDIPLEN |i(15.212766)>| =     0.00433589
 #121 1 |<O|ZDIPLEN |i(15.274695)>| =     0.02264680

 THE_END   
