

     ************************************************************************
     *************** Dalton - An Electronic Structure Program ***************
     ************************************************************************

    This is output from DALTON release Dalton2017.alpha (2016)
         ( Web site: http://daltonprogram.org )

   ----------------------------------------------------------------------------

    NOTE:
     
    Dalton is an experimental code for the evaluation of molecular
    properties using (MC)SCF, DFT, CI, and CC wave functions.
    The authors accept no responsibility for the performance of
    the code or for the correctness of the results.
     
    The code (in whole or part) is provided under a licence and
    is not to be reproduced for further distribution without
    the written permission of the authors or their representatives.
     
    See the home page "http://daltonprogram.org" for further information.
     
    If results obtained with this code are published,
    the appropriate citations would be both of:
     
       K. Aidas, C. Angeli, K. L. Bak, V. Bakken, R. Bast,
       L. Boman, O. Christiansen, R. Cimiraglia, S. Coriani,
       P. Dahle, E. K. Dalskov, U. Ekstroem,
       T. Enevoldsen, J. J. Eriksen, P. Ettenhuber, B. Fernandez,
       L. Ferrighi, H. Fliegl, L. Frediani, K. Hald, A. Halkier,
       C. Haettig, H. Heiberg, T. Helgaker, A. C. Hennum,
       H. Hettema, E. Hjertenaes, S. Hoest, I.-M. Hoeyvik,
       M. F. Iozzi, B. Jansik, H. J. Aa. Jensen, D. Jonsson,
       P. Joergensen, J. Kauczor, S. Kirpekar,
       T. Kjaergaard, W. Klopper, S. Knecht, R. Kobayashi, H. Koch,
       J. Kongsted, A. Krapp, K. Kristensen, A. Ligabue,
       O. B. Lutnaes, J. I. Melo, K. V. Mikkelsen, R. H. Myhre,
       C. Neiss, C. B. Nielsen, P. Norman, J. Olsen,
       J. M. H. Olsen, A. Osted, M. J. Packer, F. Pawlowski,
       T. B. Pedersen, P. F. Provasi, S. Reine, Z. Rinkevicius,
       T. A. Ruden, K. Ruud, V. Rybkin, P. Salek, C. C. M. Samson,
       A. Sanchez de Meras, T. Saue, S. P. A. Sauer,
       B. Schimmelpfennig, K. Sneskov, A. H. Steindal,
       K. O. Sylvester-Hvid, P. R. Taylor, A. M. Teale,
       E. I. Tellgren, D. P. Tew, A. J. Thorvaldsen, L. Thoegersen,
       O. Vahtras, M. A. Watson, D. J. D. Wilson, M. Ziolkowski
       and H. Agren,
       "The Dalton quantum chemistry program system",
       WIREs Comput. Mol. Sci. 2014, 4:269–284 (doi: 10.1002/wcms.1172)
     
    and
     
       Dalton, a Molecular Electronic Structure Program,
       Release Dalton2017.alpha (2016), see http://daltonprogram.org
   ----------------------------------------------------------------------------

    Authors in alphabetical order (major contribution(s) in parenthesis):

  Kestutis Aidas,           Vilnius University,           Lithuania   (QM/MM)
  Celestino Angeli,         University of Ferrara,        Italy       (NEVPT2)
  Keld L. Bak,              UNI-C,                        Denmark     (AOSOPPA, non-adiabatic coupling, magnetic properties)
  Vebjoern Bakken,          University of Oslo,           Norway      (DALTON; geometry optimizer, symmetry detection)
  Radovan Bast,             UiT The Arctic U. of Norway,  Norway      (DALTON installation and execution frameworks)
  Pablo Baudin,             University of Valencia,       Spain       (Cholesky excitation energies)
  Linus Boman,              NTNU,                         Norway      (Cholesky decomposition and subsystems)
  Ove Christiansen,         Aarhus University,            Denmark     (CC module)
  Renzo Cimiraglia,         University of Ferrara,        Italy       (NEVPT2)
  Sonia Coriani,            University of Trieste,        Italy       (CC module, MCD in RESPONS)
  Janusz Cukras,            University of Trieste,        Italy       (MChD in RESPONS)
  Paal Dahle,               University of Oslo,           Norway      (Parallelization)
  Erik K. Dalskov,          UNI-C,                        Denmark     (SOPPA)
  Thomas Enevoldsen,        Univ. of Southern Denmark,    Denmark     (SOPPA)
  Janus J. Eriksen,         Aarhus University,            Denmark     (Polarizable embedding model, TDA)
  Rasmus Faber,             University of Copenhagen,     Denmark     (Vib.avg. NMR with SOPPA, parallel AO-SOPPA)
  Berta Fernandez,          U. of Santiago de Compostela, Spain       (doublet spin, ESR in RESPONS)
  Lara Ferrighi,            Aarhus University,            Denmark     (PCM Cubic response)
  Heike Fliegl,             University of Oslo,           Norway      (CCSD(R12))
  Luca Frediani,            UiT The Arctic U. of Norway,  Norway      (PCM)
  Bin Gao,                  UiT The Arctic U. of Norway,  Norway      (Gen1Int library)
  Christof Haettig,         Ruhr-University Bochum,       Germany     (CC module)
  Kasper Hald,              Aarhus University,            Denmark     (CC module)
  Asger Halkier,            Aarhus University,            Denmark     (CC module)
  Frederik Beyer Hansen,    University of Copenhagen,     Denmark     (Parallel AO-SOPPA)
  Erik D. Hedegaard,        Univ. of Southern Denmark,    Denmark     (Polarizable embedding model, QM/MM)
  Hanne Heiberg,            University of Oslo,           Norway      (geometry analysis, selected one-electron integrals)
  Trygve Helgaker,          University of Oslo,           Norway      (DALTON; ABACUS, ERI, DFT modules, London, and much more)
  Alf Christian Hennum,     University of Oslo,           Norway      (Parity violation)
  Hinne Hettema,            University of Auckland,       New Zealand (quadratic response in RESPONS; SIRIUS supersymmetry)
  Eirik Hjertenaes,         NTNU,                         Norway      (Cholesky decomposition)
  Pi A. B. Haase,           University of Copenhagen,     Denmark     (Triplet AO-SOPPA)
  Maria Francesca Iozzi,    University of Oslo,           Norway      (RPA)
  Brano Jansik              Technical Univ. of Ostrava    Czech Rep.  (DFT cubic response)
  Hans Joergen Aa. Jensen,  Univ. of Southern Denmark,    Denmark     (DALTON; SIRIUS, RESPONS, ABACUS modules, London, and much more)
  Dan Jonsson,              UiT The Arctic U. of Norway,  Norway      (cubic response in RESPONS module)
  Poul Joergensen,          Aarhus University,            Denmark     (RESPONS, ABACUS, and CC modules)
  Maciej Kaminski,          University of Warsaw,         Poland      (CPPh in RESPONS)
  Joanna Kauczor,           Linkoeping University,        Sweden      (Complex polarization propagator (CPP) module)
  Sheela Kirpekar,          Univ. of Southern Denmark,    Denmark     (Mass-velocity & Darwin integrals)
  Wim Klopper,              KIT Karlsruhe,                Germany     (R12 code in CC, SIRIUS, and ABACUS modules)
  Stefan Knecht,            ETH Zurich,                   Switzerland (Parallel CI and MCSCF)
  Rika Kobayashi,           Australian National Univ.,    Australia   (DIIS in CC, London in MCSCF)
  Henrik Koch,              NTNU,                         Norway      (CC module, Cholesky decomposition)
  Jacob Kongsted,           Univ. of Southern Denmark,    Denmark     (Polarizable embedding model, QM/MM)
  Andrea Ligabue,           University of Modena,         Italy       (CTOCD, AOSOPPA)
  Nanna H. List             Univ. of Southern Denmark,    Denmark     (Polarizable embedding model)
  Ola B. Lutnaes,           University of Oslo,           Norway      (DFT Hessian)
  Juan I. Melo,             University of Buenos Aires,   Argentina   (LRESC, Relativistic Effects on NMR Shieldings)
  Kurt V. Mikkelsen,        University of Copenhagen,     Denmark     (MC-SCRF and QM/MM)
  Rolf H. Myhre,            NTNU,                         Norway      (Cholesky, subsystems and ECC2)
  Christian Neiss,          Univ. Erlangen-Nuernberg,     Germany     (CCSD(R12))
  Christian B. Nielsen,     University of Copenhagen,     Denmark     (QM/MM)
  Patrick Norman,           Linkoeping University,        Sweden      (Cubic response and complex frequency response in RESPONS)
  Jeppe Olsen,              Aarhus University,            Denmark     (SIRIUS CI/density modules)
  Jogvan Magnus H. Olsen,   Univ. of Southern Denmark,    Denmark     (Polarizable embedding model, QM/MM)
  Anders Osted,             Copenhagen University,        Denmark     (QM/MM)
  Martin J. Packer,         University of Sheffield,      UK          (SOPPA)
  Filip Pawlowski,          Kazimierz Wielki University,  Poland      (CC3)
  Morten N. Pedersen,       Univ. of Southern Denmark,    Denmark     (Polarizable embedding model)
  Thomas B. Pedersen,       University of Oslo,           Norway      (Cholesky decomposition)
  Patricio F. Provasi,      University of Northeastern,   Argentina   (Analysis of coupling constants in localized orbitals)
  Zilvinas Rinkevicius,     KTH Stockholm,                Sweden      (open-shell DFT, ESR)
  Elias Rudberg,            KTH Stockholm,                Sweden      (DFT grid and basis info)
  Torgeir A. Ruden,         University of Oslo,           Norway      (Numerical derivatives in ABACUS)
  Kenneth Ruud,             UiT The Arctic U. of Norway,  Norway      (DALTON; ABACUS magnetic properties and much more)
  Pawel Salek,              KTH Stockholm,                Sweden      (DALTON; DFT code)
  Claire C. M. Samson       University of Karlsruhe       Germany     (Boys localization, r12 integrals in ERI)
  Alfredo Sanchez de Meras, University of Valencia,       Spain       (CC module, Cholesky decomposition)
  Trond Saue,               Paul Sabatier University,     France      (direct Fock matrix construction)
  Stephan P. A. Sauer,      University of Copenhagen,     Denmark     (SOPPA(CCSD), SOPPA prop., AOSOPPA, vibrational g-factors)
  Bernd Schimmelpfennig,    Forschungszentrum Karlsruhe,  Germany     (AMFI module)
  Kristian Sneskov,         Aarhus University,            Denmark     (Polarizable embedding model, QM/MM)
  Arnfinn H. Steindal,      UiT The Arctic U. of Norway,  Norway      (parallel QM/MM, Polarizable embedding model)
  Casper Steinmann,         Univ. of Southern Denmark,    Denmark     (QFIT, Polarizable embedding model)
  K. O. Sylvester-Hvid,     University of Copenhagen,     Denmark     (MC-SCRF)
  Peter R. Taylor,          VLSCI/Univ. of Melbourne,     Australia   (Symmetry handling ABACUS, integral transformation)
  Andrew M. Teale,          University of Nottingham,     England     (DFT-AC, DFT-D)
  David P. Tew,             University of Bristol,        England     (CCSD(R12))
  Olav Vahtras,             KTH Stockholm,                Sweden      (triplet response, spin-orbit, ESR, TDDFT, open-shell DFT)
  David J. Wilson,          La Trobe University,          Australia   (DFT Hessian and DFT magnetizabilities)
  Hans Agren,               KTH Stockholm,                Sweden      (SIRIUS module, RESPONS, MC-SCRF solvation model)
 --------------------------------------------------------------------------------

     Date and time (Linux)  : Mon Dec 31 15:34:14 2018
     Host name              : n-62-23-14                              

 * Work memory size             :  1280000000 =  9.537 gigabytes.

 * Directories for basis set searches:
   1) /zhome/37/3/129401/NH3NH4/CCSD/AIMD_SAMPLING/nh3_4h2o_nd
   2) /zhome/9a/4/124800/source/dalton/build-mlcc/basis


Compilation information
-----------------------

 Who compiled             | rfaber
 Host                     | hpclogin1
 System                   | Linux-2.6.32-696.1.1.el6.x86_64
 CMake generator          | Unix Makefiles
 Processor                | x86_64
 64-bit integers          | ON
 MPI                      | OFF
 Fortran compiler         | /opt/intel/2016update2/compilers_and_libraries_201
                          | 6.2.181/linux/bin/intel64/ifort
 Fortran compiler version | ifort (IFORT) 16.0.2 20160204
 C compiler               | /opt/intel/2016update2/compilers_and_libraries_201
                          | 6.2.181/linux/bin/intel64/icc
 C compiler version       | icc (ICC) 16.0.2 20160204
 C++ compiler             | /opt/intel/2016update2/compilers_and_libraries_201
                          | 6.2.181/linux/bin/intel64/icpc
 C++ compiler version     | icpc (ICC) 16.0.2 20160204
 Static linking           | OFF
 Last Git revision        | bb4d1599ca5680a9f3980451fc8bbefdba436d59
 Git branch               | mlcc
 Configuration time       | 2017-06-13 16:11:03.928841


   Content of the .dal input file
 ----------------------------------

**DALTON
.RUN WAVE FUNCTIONS
*QMMM
.QMMM
**INTEGRALS
.DIPLEN
**WAVE FUNCTIONS
.CC
*PRINT
!To check the origin of excit
.PRINTL
   0 11
*SCF INP
.THRESH
1.0D-7
*CC INP
.CCSD
.THRLEQ
 1.0D-9
.THRENR
 1.0D-10
.FROIMP
4
0
.PRINT
 1
.MAX IT
 1200
.MAXRED
 1200
.MXLRV
1199
*CCSLV
.CCMM
.MXSLIT
200
.MXINIT
4 5
*CCEXCI
.NCCEXC
 15
.CVSEPARA
1
1
*CCLRSD
.DIPOLE
**END OF DALTON INPUT


   Content of the .mol file
 ----------------------------

ATOMBASIS


Atomtypes=4 Charge=0 Nosymm Angstrom
   7.00000    1    Basis=6-311G**
N          0.000000        0.000000        0.000000
   1.00000    3    Basis=6-311G**
H         -0.060982        0.858035        0.554810
H          0.096207       -0.765733        0.685967
H          0.859118       -0.039107       -0.487634
   8.00000    4    Basis=6-311G**
O          0.925789        2.863843        0.770049
O         -2.643205        0.170278       -0.423919
O          1.661279       -0.756059       -2.783166
O          0.200009       -2.387259        2.187300
   1.00000    8    Basis=6-311G**
H          0.485796        2.834710       -0.130093
H          1.222328        3.789378        0.825216
H         -3.176301       -0.456848       -0.981704
H         -1.615762       -0.030936       -0.537278
H          1.751872       -1.644677       -2.273939
H          2.299246       -0.117880       -2.409385
H         -0.685284       -2.012602        2.416175
H          0.063087       -3.207292        1.660477


       *******************************************************************
       *********** Output from DALTON general input processing ***********
       *******************************************************************

 --------------------------------------------------------------------------------
   Overall default print level:    0
   Print level for DALTON.STAT:    1

    HERMIT 1- and 2-electron integral sections will be executed
    "Old" integral transformation used (limited to max 255 basis functions)
    Wave function sections will be executed (SIRIUS module)
 --------------------------------------------------------------------------------


 Changes of defaults for *QMMM  :
 --------------------------------

 +------------------+
 |  WORD: | CHANGE: |
 +------------------+
 |   QMMM |       T |
 +------------------+
 


   ****************************************************************************
   *************** Output of molecule and basis set information ***************
   ****************************************************************************


    The two title cards from your ".mol" input:
    ------------------------------------------------------------------------
 1:                                                                         
 2:                                                                         
    ------------------------------------------------------------------------

  Coordinates are entered in Angstrom and converted to atomic units.
          - Conversion factor : 1 bohr = 0.52917721 A

  Atomic type no.    1
  --------------------
  Nuclear charge:   7.00000
  Number of symmetry independent centers:    1
  Number of basis sets to read;    2
  The basis set is "6-311G**" from the basis set library.
  Basis set file used for this atomic type with Z =   7 :
     "/zhome/9a/4/124800/source/dalton/build-mlcc/basis/6-311G**"

  Info about the basis set file: your basis has no documentation.
  Basis set: 6-311G**                                                                        

  Atomic type no.    2
  --------------------
  Nuclear charge:   1.00000
  Number of symmetry independent centers:    3
  Number of basis sets to read;    2
  The basis set is "6-311G**" from the basis set library.
  Basis set file used for this atomic type with Z =   1 :
     "/zhome/9a/4/124800/source/dalton/build-mlcc/basis/6-311G**"

  Info about the basis set file: your basis has no documentation.
  Basis set: 6-311G**                                                                        

  Atomic type no.    3
  --------------------
  Nuclear charge:   8.00000
  Number of symmetry independent centers:    4
  Number of basis sets to read;    2
  The basis set is "6-311G**" from the basis set library.
  Basis set file used for this atomic type with Z =   8 :
     "/zhome/9a/4/124800/source/dalton/build-mlcc/basis/6-311G**"

  Info about the basis set file: your basis has no documentation.
  Basis set: 6-311G**                                                                        

  Atomic type no.    4
  --------------------
  Nuclear charge:   1.00000
  Number of symmetry independent centers:    8
  Number of basis sets to read;    2
  The basis set is "6-311G**" from the basis set library.
  Basis set file used for this atomic type with Z =   1 :
     "/zhome/9a/4/124800/source/dalton/build-mlcc/basis/6-311G**"

  Info about the basis set file: your basis has no documentation.
  Basis set: 6-311G**                                                                        


                         SYMGRP: Point group information
                         -------------------------------

@    Point group: C1 


                                 Isotopic Masses
                                 ---------------

                           N          14.003074
                           H           1.007825
                           H           1.007825
                           H           1.007825
                           O          15.994915
                           O          15.994915
                           O          15.994915
                           O          15.994915
                           H           1.007825
                           H           1.007825
                           H           1.007825
                           H           1.007825
                           H           1.007825
                           H           1.007825
                           H           1.007825
                           H           1.007825

                       Total mass:    89.068809 amu
                       Natural abundance:  98.514 %

 Center-of-mass coordinates (a.u.):    0.075324   -0.054012   -0.099234


  Atoms and basis sets
  --------------------

  Number of atom types :    4
  Total number of atoms:   16

  label    atoms   charge   prim   cont     basis
  ----------------------------------------------------------------------
  N           1    7.0000    31    18      [11s5p1d|4s3p1d]                                   
  H           3    1.0000     8     6      [5s1p|3s1p]                                        
  O           4    8.0000    31    18      [11s5p1d|4s3p1d]                                   
  H           8    1.0000     8     6      [5s1p|3s1p]                                        
  ----------------------------------------------------------------------
  total:     16   50.0000   243   156
  ----------------------------------------------------------------------
  Spherical harmonic basis used.

  Threshold for neglecting AO integrals:  1.00D-12


  Cartesian Coordinates (a.u.)
  ----------------------------

  Total number of coordinates:   48
  N       :     1  x   0.0000000000    2  y   0.0000000000    3  z   0.0000000000
  H       :     4  x  -0.1152392786    5  y   1.6214511557    6  z   1.0484389514
  H       :     7  x   0.1818048813    8  y  -1.4470256549    9  z   1.2962897608
  H       :    10  x   1.6234977291   11  y  -0.0739015196   12  z  -0.9214947092
  O       :    13  x   1.7494876595   14  y   5.4118789350   15  z   1.4551817128
  O       :    16  x  -4.9949335422   17  y   0.3217787851   18  z  -0.8010908092
  O       :    19  x   3.1393623272   20  y  -1.4287444443   21  z  -5.2594215004
  O       :    22  x   0.3779622325   23  y  -4.5112656994   24  z   4.1333979532
  H       :    25  x   0.9180213926   26  y   5.3568255438   27  z  -0.2458401408
  H       :    28  x   2.3098651549   29  y   7.1608866041   30  z   1.5594322340
  H       :    31  x  -6.0023389805   32  y  -0.8633176008   33  z  -1.8551516958
  H       :    34  x  -3.0533476632   35  y  -0.0584605674   36  z  -1.0153082730
  H       :    37  x   3.3105582860   38  y  -3.1079890941   39  z  -4.2971219349
  H       :    40  x   4.3449452340   41  y  -0.2227609156   42  z  -4.5530777797
  H       :    43  x  -1.2949990778   44  y  -3.8032665786   45  z   4.5659090201
  H       :    46  x   0.1192171520   47  y  -6.0609034829   48  z   3.1378467669


   Interatomic separations (in Angstrom):
   --------------------------------------

            N           H           H           H           O           O     
            ------      ------      ------      ------      ------      ------
 N     :    0.000000
 H     :    1.023600    0.000000
 H     :    1.032547    1.636622    0.000000
 H     :    0.988635    1.654732    1.577136    0.000000
 O     :    3.106712    2.245732    3.724124    3.164385    0.000000
 O     :    2.682393    2.845838    3.100378    3.509155    4.628020    0.000000
 O     :    3.328286    4.088223    3.805841    2.535143    5.125424    4.995271
 O     :    3.243962    3.642125    2.212266    3.619878    5.487206    4.630694
 H     :    2.878976    2.162245    3.712267    2.919936    1.002346    4.120216
 H     :    4.066258    3.211351    4.694313    4.063594    0.973444    5.440640
 H     :    3.355792    3.714163    3.685898    4.086957    5.560825    0.994285
 H     :    1.703030    2.097681    2.228698    2.475391    4.067964    1.053080
 H     :    3.308295    4.189490    3.503543    2.562372    5.502275    5.102287
 H     :    3.332501    3.912741    3.854127    2.402769    4.570105    5.334129
 H     :    3.218398    3.477785    2.271350    3.835618    5.393051    4.082224
 H     :    3.612186    4.214828    2.629064    3.909660    6.196434    4.803822

            O           O           H           H           H           H     
            ------      ------      ------      ------      ------      ------
 O     :    0.000000
 O     :    5.431543    0.000000
 H     :    4.616728    5.720222    0.000000
 H     :    5.820146    6.407125    1.538339    0.000000
 H     :    5.170781    5.016826    4.997054    6.375212    0.000000
 H     :    4.038417    4.033932    3.576908    4.950348    1.677557    0.000000
 H     :    1.028183    4.781460    5.124835    6.278068    5.231415    4.118387
 H     :    0.976722    5.539530    4.147476    5.185466    5.668755    4.340464
 H     :    5.841096    0.988178    5.599227    6.311347    4.491227    3.676367
 H     :    5.320594    0.984248    6.315902    7.141071    5.003968    4.211638

            H           H           H           H     
            ------      ------      ------      ------
 H     :    0.000000
 H     :    1.627597    0.000000
 H     :    5.298327    5.981924    0.000000
 H     :    4.557783    5.577513    1.599507    0.000000


  Max    interatomic separation is    7.1411 Angstrom (   13.4947 Bohr)
  between atoms   16 and   10, "H     " and "H     ".

  Min HX interatomic separation is    0.9734 Angstrom (    1.8395 Bohr)

  Min YX interatomic separation is    2.6824 Angstrom (    5.0690 Bohr)


  Bond distances (Angstrom):
  --------------------------

                  atom 1     atom 2       distance
                  ------     ------       --------
  bond distance:  H          N            1.023600
  bond distance:  H          N            1.032547
  bond distance:  H          N            0.988635
  bond distance:  H          O            1.002346
  bond distance:  H          O            0.973444
  bond distance:  H          O            0.994285
  bond distance:  H          O            1.053080
  bond distance:  H          O            1.028183
  bond distance:  H          O            0.976722
  bond distance:  H          O            0.988178
  bond distance:  H          O            0.984248


  Bond angles (degrees):
  ----------------------

                  atom 1     atom 2     atom 3         angle
                  ------     ------     ------         -----
  bond angle:     H          N          H            105.492
  bond angle:     H          N          H            110.626
  bond angle:     H          N          H            102.555
  bond angle:     H          O          H            102.254
  bond angle:     H          O          H            110.011
  bond angle:     H          O          H            108.519
  bond angle:     H          O          H            108.374




 Principal moments of inertia (u*A**2) and principal axes
 --------------------------------------------------------

   IA     411.042985          0.342118    0.777930   -0.527048
   IB     457.893824         -0.412846    0.628300    0.659392
   IC     536.512221          0.844105   -0.008000    0.536118


 Rotational constants
 --------------------

               A                   B                   C

           1229.5040           1103.7035            941.9711 MHz
            0.041012            0.036816            0.031421 cm-1


@  Nuclear repulsion energy :  179.432738613954 Hartree


                     .---------------------------------------.
                     | Starting in Integral Section (HERMIT) |
                     `---------------------------------------'



 ***************************************************************************************
 ****************** Output from **INTEGRALS input processing (HERMIT) ******************
 ***************************************************************************************



    *************************************************************************
    ****************** Output from HERMIT input processing ******************
    *************************************************************************


 Default print level:        1

 * Nuclear model: Point charge

 Calculation of one- and two-electron Hamiltonian integrals.

 The following one-electron property integrals are calculated as requested:
          - overlap integrals
          - dipole length integrals

 Center of mass  (bohr):      0.075323643218     -0.054011916258     -0.099233581629
 Operator center (bohr):      0.000000000000      0.000000000000      0.000000000000
 Gauge origin    (bohr):      0.000000000000      0.000000000000      0.000000000000
 Dipole origin   (bohr):      0.000000000000      0.000000000000      0.000000000000
 
  *********************************** 
  QMMM electrostatic potential: 
  Multipole order                                    0
  Isotropic polarization  
  *********************************** 
 
  ---------------- 
  QMMM information 
  ---------------- 
 
  MM coordinates in au 
  -------------------- 
     1      7.562744      5.744518     -7.353348
     2      7.038183      4.877629     -8.921822
     3      6.008212      6.727230     -7.177934
     4     11.723506     10.640532      5.155710
     5     13.211215      9.720369      5.741736
     6     11.528376     11.803998      6.523869
     7     -7.112984     -8.702748     11.336093
     8     -8.247126     -8.038079     12.702576
     9     -8.121100     -8.738808      9.762690
    10      9.654647      2.958493     10.922708
    11     11.035834      2.512160      9.727989
    12      8.775348      1.231432     10.744535
    13     -8.133856     -6.447237      6.098250
    14     -9.866164     -5.936584      5.916859
    15     -7.292381     -4.721862      5.747337
    16     -1.415711     -7.131556     -3.221684
    17     -1.966511     -5.730547     -4.299142
    18     -2.928257     -7.492581     -2.157905
    19      7.428551      1.133017     -3.612499
    20      6.801844      1.961362     -2.031291
    21      7.487333      2.468009     -4.942477
    22     -3.165688      6.085988     -7.053252
    23     -3.858193      7.435785     -5.942839
    24     -3.124842      7.029288     -8.605592
    25      7.365274    -10.278039    -10.262967
    26      7.755769     -8.973797     -8.958294
    27      5.590573     -9.912891    -10.762317
    28    -10.299778      0.576501     -4.842478
    29    -12.019981     -0.015116     -4.600587
    30     -9.747241     -0.252707     -6.447483
    31     -8.117194     -6.389209     -6.915776
    32     -6.464220     -6.002432     -6.008741
    33     -9.284349     -6.819914     -5.475616
    34     -5.617619     -9.935039     -1.525054
    35     -4.434862    -11.355521     -1.211093
    36     -7.169819    -10.339750     -0.554104
    37     -4.847087     -2.270196    -11.361527
    38     -4.014563     -0.584564    -11.669527
    39     -4.025638     -3.339125    -12.755196
    40     11.107249     -1.823011      0.516313
    41     11.611275     -0.082583      0.289614
    42      9.237663     -2.188777      0.754566
    43    -11.524489      3.241453      2.698041
    44    -12.506714      4.806239      2.904983
    45     -9.990404      3.851326      1.635137
    46      3.259426      0.475899      6.190720
    47      4.315403      1.906490      5.625550
    48      4.367469     -0.288979      7.548341
    49     -3.335520     -3.104862     -6.305640
    50     -2.105149     -1.862000     -5.935530
    51     -3.744396     -2.885772     -8.211204
    52     -7.461525      5.069205     10.900192
    53     -5.825213      4.746450     11.587729
    54     -8.472946      5.300043     12.419959
    55     -9.462065      1.606084      7.306390
    56     -9.948822      2.380535      5.692806
    57     -8.419966      2.753074      8.376011
    58     10.041224     -8.334582      8.992288
    59     10.691541     -6.875931      9.890333
    60      8.963037     -9.265584     10.185798
    61     -3.273820      9.363933    -11.057969
    62     -2.278377      9.291005    -12.531409
    63     -4.906432     10.239594    -11.400385
    64      6.329313      5.928967      8.606487
    65      5.187996      5.952887     10.058500
    66      7.818428      4.832555      9.170678
    67      2.546924      5.172696    -11.360852
    68      1.747282      6.306099    -10.205508
    69      2.239936      3.356501    -10.745899
    70      7.685851     -6.409131     -6.467569
    71      6.055707     -5.935405     -5.588283
    72      9.080246     -6.450104     -5.194666
    73      2.704948     -8.897020     11.204942
    74      1.465158     -9.536624     12.354772
    75      2.979098    -10.453608     10.041421
    76     -2.509955      2.351944     11.712885
    77     -0.998541      1.801397     12.530230
    78     -2.019155      2.243942      9.868518
    79     -5.704378     -1.518557      4.266567
    80     -6.914867     -0.484768      5.281072
    81     -5.844961     -0.647974      2.645199
    82      5.317721    -10.930461      2.883138
    83      5.361174     -9.107679      2.981098
    84      5.492956    -11.581935      1.168026
    85      3.487535      9.352175     -7.677598
    86      2.334122     10.570151     -6.921834
    87      4.944608     10.334343     -8.294492
    88      5.681443     -6.302248      5.548565
    89      7.360069     -6.437588      6.257320
    90      4.735236     -4.987679      6.467546
    91      2.070945      0.054458    -10.183640
    92      2.511095     -1.073281    -11.594626
    93      2.603956     -0.680163     -8.475881
    94     10.697173      8.646355     -3.210588
    95     10.417767      8.534755     -5.069016
    96     11.968265      7.291656     -2.959780
    97      5.536208      2.083750      1.547723
    98      4.182125      3.326481      1.242875
    99      7.044338      3.123991      2.096337
   100      4.036580     -5.943453     -2.886957
   101      2.259230     -6.465981     -2.683823
   102      4.310526     -4.986991     -1.267494
   103     -0.338815    -11.073969     -6.242442
   104     -1.975389    -11.293791     -6.926613
   105     -0.607377     -9.641991     -4.937890
   106     -2.879221     -6.675442      9.276210
   107     -3.163005     -7.422867      7.638976
   108     -3.605524     -7.685767     10.624681
   109     -9.314689     -2.193350     -9.006117
   110     -7.845030     -1.803269    -10.063903
   111     -8.757694     -3.792578     -8.153923
   112     -0.083229     -9.521946      1.974917
   113      1.608739    -10.125973      2.429615
   114     -0.545995    -10.805671      0.598697
   115      2.234650     -3.866899      9.626357
   116      0.688486     -4.316817      8.668280
   117      2.482053     -5.332560     10.719874
   118     -6.270729     10.837583     -6.171186
   119     -6.982761     11.191550     -7.895788
   120     -6.362759     12.370244     -5.159914
   121     -9.353434      4.769313     -1.945275
   122     -9.227540      3.142399     -2.913570
   123     -7.586341      5.297418     -1.561501
   124      5.986403      8.729117     -0.545543
   125      7.665589      8.399211     -1.395228
   126      6.263635      7.897746      1.073123
   127     -1.919858     10.243391     -1.379440
   128     -2.709510      8.549601     -1.032407
   129     -0.623339     10.079502     -2.762169
   130      1.570610      5.169563     -3.696219
   131      0.188196      5.221873     -4.893106
   132      2.537966      6.627772     -4.214169
   133     -4.214858      6.059909     -0.407194
   134     -4.074790      4.413162     -1.162108
   135     -4.084906      5.478458      1.501166
   136     -1.716011      1.392311      6.590342
   137     -2.867314      0.153000      5.870729
   138      0.059090      0.875489      6.541822
   139      8.239612      6.567586      3.962678
   140      9.256028      8.016948      4.678064
   141      7.113148      6.397023      5.353228
   142     -4.934682      4.630997      4.350344
   143     -3.500464      4.248754      5.331624
   144     -5.857947      6.110407      5.100635
   145     11.234178     -2.579735      5.728113
   146     12.533053     -1.484457      6.402517
   147     11.115431     -1.854496      3.950472
   148      5.909773     -3.322498      0.970611
   149      5.238258     -1.690672      1.610593
   150      6.046661     -4.404630      2.539907
   151     -9.733392      6.790274     -8.092093
   152     -8.811723      7.268988     -6.482688
   153    -11.123858      5.538056     -7.655383
   154    -10.951146    -10.937107     -0.164011
   155    -11.970113    -11.194719      1.320890
   156    -11.379800    -12.049695     -1.689355
   157      9.314065     -3.433647    -10.536281
   158     11.057734     -2.986623    -10.178953
   159      8.730865     -4.217149     -8.956055
   160      7.002528     -1.565126      8.878408
   161      8.097716     -1.819207      7.359899
   162      7.642971     -2.803409     10.195379
   163     -4.597800    -10.037904      5.120750
   164     -5.808323     -8.657374      4.584631
   165     -2.913141     -9.952010      4.173237
   166     -7.378044      8.650454      6.764938
   167     -7.143070      8.193108      8.585784
   168     -6.254599     10.119251      6.478799
   169     -0.892896      8.062354      8.063316
   170      0.418767      9.456653      7.658705
   171      0.221714      6.723636      8.647177
   172      3.878177     11.207716      7.646507
   173      4.666926     11.793853      6.034880
   174      5.151752      9.849217      8.242339
   175    -11.593780     -6.360109     -2.900240
   176    -11.562129     -7.685843     -1.648911
   177    -11.636950     -4.623757     -2.087633
 
  MM charges 
  ---------- 
     1     -0.674440
     2      0.337220
     3      0.337220
     4     -0.674440
     5      0.337220
     6      0.337220
     7     -0.674440
     8      0.337220
     9      0.337220
    10     -0.674440
    11      0.337220
    12      0.337220
    13     -0.674440
    14      0.337220
    15      0.337220
    16     -0.674440
    17      0.337220
    18      0.337220
    19     -0.674440
    20      0.337220
    21      0.337220
    22     -0.674440
    23      0.337220
    24      0.337220
    25     -0.674440
    26      0.337220
    27      0.337220
    28     -0.674440
    29      0.337220
    30      0.337220
    31     -0.674440
    32      0.337220
    33      0.337220
    34     -0.674440
    35      0.337220
    36      0.337220
    37     -0.674440
    38      0.337220
    39      0.337220
    40     -0.674440
    41      0.337220
    42      0.337220
    43     -0.674440
    44      0.337220
    45      0.337220
    46     -0.674440
    47      0.337220
    48      0.337220
    49     -0.674440
    50      0.337220
    51      0.337220
    52     -0.674440
    53      0.337220
    54      0.337220
    55     -0.674440
    56      0.337220
    57      0.337220
    58     -0.674440
    59      0.337220
    60      0.337220
    61     -0.674440
    62      0.337220
    63      0.337220
    64     -0.674440
    65      0.337220
    66      0.337220
    67     -0.674440
    68      0.337220
    69      0.337220
    70     -0.674440
    71      0.337220
    72      0.337220
    73     -0.674440
    74      0.337220
    75      0.337220
    76     -0.674440
    77      0.337220
    78      0.337220
    79     -0.674440
    80      0.337220
    81      0.337220
    82     -0.674440
    83      0.337220
    84      0.337220
    85     -0.674440
    86      0.337220
    87      0.337220
    88     -0.674440
    89      0.337220
    90      0.337220
    91     -0.674440
    92      0.337220
    93      0.337220
    94     -0.674440
    95      0.337220
    96      0.337220
    97     -0.674440
    98      0.337220
    99      0.337220
   100     -0.674440
   101      0.337220
   102      0.337220
   103     -0.674440
   104      0.337220
   105      0.337220
   106     -0.674440
   107      0.337220
   108      0.337220
   109     -0.674440
   110      0.337220
   111      0.337220
   112     -0.674440
   113      0.337220
   114      0.337220
   115     -0.674440
   116      0.337220
   117      0.337220
   118     -0.674440
   119      0.337220
   120      0.337220
   121     -0.674440
   122      0.337220
   123      0.337220
   124     -0.674440
   125      0.337220
   126      0.337220
   127     -0.674440
   128      0.337220
   129      0.337220
   130     -0.674440
   131      0.337220
   132      0.337220
   133     -0.674440
   134      0.337220
   135      0.337220
   136     -0.674440
   137      0.337220
   138      0.337220
   139     -0.674440
   140      0.337220
   141      0.337220
   142     -0.674440
   143      0.337220
   144      0.337220
   145     -0.674440
   146      0.337220
   147      0.337220
   148     -0.674440
   149      0.337220
   150      0.337220
   151     -0.674440
   152      0.337220
   153      0.337220
   154     -0.674440
   155      0.337220
   156      0.337220
   157     -0.674440
   158      0.337220
   159      0.337220
   160     -0.674440
   161      0.337220
   162      0.337220
   163     -0.674440
   164      0.337220
   165      0.337220
   166     -0.674440
   167      0.337220
   168      0.337220
   169     -0.674440
   170      0.337220
   171      0.337220
   172     -0.674440
   173      0.337220
   174      0.337220
   175     -0.674440
   176      0.337220
   177      0.337220
 
  MM isotropic polarizabilities in au 
  ----------------------------------- 
     1      5.739350
     2      2.308390
     3      2.308390
     4      5.739350
     5      2.308390
     6      2.308390
     7      5.739350
     8      2.308390
     9      2.308390
    10      5.739350
    11      2.308390
    12      2.308390
    13      5.739350
    14      2.308390
    15      2.308390
    16      5.739350
    17      2.308390
    18      2.308390
    19      5.739350
    20      2.308390
    21      2.308390
    22      5.739350
    23      2.308390
    24      2.308390
    25      5.739350
    26      2.308390
    27      2.308390
    28      5.739350
    29      2.308390
    30      2.308390
    31      5.739350
    32      2.308390
    33      2.308390
    34      5.739350
    35      2.308390
    36      2.308390
    37      5.739350
    38      2.308390
    39      2.308390
    40      5.739350
    41      2.308390
    42      2.308390
    43      5.739350
    44      2.308390
    45      2.308390
    46      5.739350
    47      2.308390
    48      2.308390
    49      5.739350
    50      2.308390
    51      2.308390
    52      5.739350
    53      2.308390
    54      2.308390
    55      5.739350
    56      2.308390
    57      2.308390
    58      5.739350
    59      2.308390
    60      2.308390
    61      5.739350
    62      2.308390
    63      2.308390
    64      5.739350
    65      2.308390
    66      2.308390
    67      5.739350
    68      2.308390
    69      2.308390
    70      5.739350
    71      2.308390
    72      2.308390
    73      5.739350
    74      2.308390
    75      2.308390
    76      5.739350
    77      2.308390
    78      2.308390
    79      5.739350
    80      2.308390
    81      2.308390
    82      5.739350
    83      2.308390
    84      2.308390
    85      5.739350
    86      2.308390
    87      2.308390
    88      5.739350
    89      2.308390
    90      2.308390
    91      5.739350
    92      2.308390
    93      2.308390
    94      5.739350
    95      2.308390
    96      2.308390
    97      5.739350
    98      2.308390
    99      2.308390
   100      5.739350
   101      2.308390
   102      2.308390
   103      5.739350
   104      2.308390
   105      2.308390
   106      5.739350
   107      2.308390
   108      2.308390
   109      5.739350
   110      2.308390
   111      2.308390
   112      5.739350
   113      2.308390
   114      2.308390
   115      5.739350
   116      2.308390
   117      2.308390
   118      5.739350
   119      2.308390
   120      2.308390
   121      5.739350
   122      2.308390
   123      2.308390
   124      5.739350
   125      2.308390
   126      2.308390
   127      5.739350
   128      2.308390
   129      2.308390
   130      5.739350
   131      2.308390
   132      2.308390
   133      5.739350
   134      2.308390
   135      2.308390
   136      5.739350
   137      2.308390
   138      2.308390
   139      5.739350
   140      2.308390
   141      2.308390
   142      5.739350
   143      2.308390
   144      2.308390
   145      5.739350
   146      2.308390
   147      2.308390
   148      5.739350
   149      2.308390
   150      2.308390
   151      5.739350
   152      2.308390
   153      2.308390
   154      5.739350
   155      2.308390
   156      2.308390
   157      5.739350
   158      2.308390
   159      2.308390
   160      5.739350
   161      2.308390
   162      2.308390
   163      5.739350
   164      2.308390
   165      2.308390
   166      5.739350
   167      2.308390
   168      2.308390
   169      5.739350
   170      2.308390
   171      2.308390
   172      5.739350
   173      2.308390
   174      2.308390
   175      5.739350
   176      2.308390
   177      2.308390


     ************************************************************************
     ************************** Output from HERINT **************************
     ************************************************************************



                      Nuclear contribution to dipole moments
                      --------------------------------------

                 au               Debye          C m (/(10**-30)

      x      4.51701425        11.48110428        38.29684162
      y     -3.14928150        -8.00467462       -26.70072048
      z     -5.05553895       -12.84989746       -42.86264418


  Time used in HUCKEL     is       0.52 seconds
  Time used in OVERLAP    is       0.14 seconds
  Time used in POPOVLP    is       0.29 seconds
  Time used in DIPLEN     is       0.25 seconds
  Time used in QUADRUP    is       0.59 seconds
  Time used in KINENE     is       0.24 seconds

 Threshold for neglecting two-electron integrals:  1.00D-12
 HERMIT - Number of two-electron integrals written:    27506873 ( 36.7% )
 HERMIT - Megabytes written:                            314.968

  Time used in TWOINT     is      15.12 seconds
  Total CPU  time used in HERMIT:  17.21 seconds
  Total wall time used in HERMIT:   5.88 seconds


                        .----------------------------------.
                        | End of Integral Section (HERMIT) |
                        `----------------------------------'



                   .--------------------------------------------.
                   | Starting in Wave Function Section (SIRIUS) |
                   `--------------------------------------------'

NCCEXCI for singlet:   15
 CCSD_INPUT: core-val requested
 Requested number of core orbs per sym
                     1
 Indices of requested core orbs
                     1

 *** Output from Huckel module :

     Using EWMO model:          T
     Using EHT  model:          F
     Number of Huckel orbitals each symmetry:   36

 EWMO - Energy Weighted Maximum Overlap - is a Huckel type method,
        which normally is better than Extended Huckel Theory.
 Reference: Linderberg and Ohrn, Propagators in Quantum Chemistry (Wiley, 1973)

 Huckel EWMO eigenvalues for symmetry :  1
          -20.684548     -20.684528     -20.684323     -20.684061     -15.674138
           -1.721442      -1.600631      -1.586403      -1.580110      -1.450427
           -0.824228      -0.806612      -0.789350      -0.783494      -0.723694
           -0.704770      -0.691195      -0.684669      -0.681552      -0.666373
           -0.616114      -0.615145      -0.602339      -0.584096      -0.514900
           -0.257025      -0.245088      -0.240471      -0.231137      -0.182290
           -0.179434      -0.177819      -0.176361      -0.159158      -0.149257
           -0.138619

 **********************************************************************
 *SIRIUS* a direct, restricted step, second order MCSCF program       *
 **********************************************************************

 
     Date and time (Linux)  : Mon Dec 31 15:34:20 2018
     Host name              : n-62-23-14                              

 Title lines from ".mol" input file:
                                                                             
                                                                             

 Print level on unit LUPRI =   2 is   0
 Print level on unit LUW4  =   2 is  11

@    (Integral direct) CC calculation.

@    This is a combination run starting with
@              a restricted, closed shell Hartree-Fock calculation


 Initial molecular orbitals are obtained according to
 ".MOSTART EWMO  " input option

@    QM part is embedded in an environment :

@         Model: QMMM

     Wave function specification
     ============================

     For the specification of the Coupled Cluster: see later.

@    Wave function type        --- CC ---
@    Number of closed shell electrons          50
@    Number of electrons in active shells       0
@    Total charge of the molecule               0

@    Spin multiplicity and 2 M_S                1         0
@    Total number of symmetries                 1 (point group: C1 )
@    Reference state symmetry                   1 (irrep name : A  )

     Orbital specifications
     ======================
@    Abelian symmetry species          All |    1
@                                          |  A  
                                       --- |  ---
@    Occupied SCF orbitals              25 |   25
@    Secondary orbitals                131 |  131
@    Total number of orbitals          156 |  156
@    Number of basis functions         156 |  156

     Optimization information
     ========================
@    Number of configurations                 1
@    Number of orbital rotations           3275
     ------------------------------------------
@    Total number of variables             3276

     Maximum number of Fock   iterations      0
     Maximum number of DIIS   iterations     60
     Maximum number of QC-SCF iterations     60
     Threshold for SCF convergence     1.00D-07


 Changes of defaults for CC:
 ---------------------------


 -Implicit frozen core calculation
 -Excitation energies calculated
 -One-photon absorption strengths will be calculated
 -Oscillator strengths calculated
  
* Read MO coefficients from SIRIUS.RST with label "NEWORB  " and header info: 31Dec18  REORTHO 


 ***********************************************
 ***** DIIS acceleration of SCF iterations *****
 ***********************************************

 C1-DIIS algorithm; max error vectors =    8
 -----------------------------------------------------------------------------

 *** DIIS iteration number    1
 RDSUPM called. NFMAT, ISYMDM(1:NFMAT)                     1
                     1

Calculating AOSUPINT
     (Precalculated two-electron integrals are transformed to P-supermatrix elements.
      Threshold for discarding integrals :  1.00D-12 )
  CPU  time used in FORMSUP    is   7.79 seconds
  WALL time used in FORMSUP    is   8.47 seconds

 ITDIIS, energy, error norm, change in energy, scr.thr., difden:
@ DIIS iter.   1    -359.857845821        3.79788D+00   -3.60D+02  -20    F

 (DIIS_RED) Control Parameters C2DIIS =         F NEVC =    1


 (DIIS_RED) B matrix:

               Column   1
       1      14.42387371
    ==== End of matrix output ====

 DIIS C vector; C2DIIS = F, LAMBDA = -1.44D+01
    1.000000
* Read MO coefficients from SIRIUS.RST with label "NEWORB  " and header info: 31Dec18  DIIS   1
      Virial theorem: -V/T =      1.997865
@      MULPOP N      -0.34; H       0.17; H       0.15; H       0.17; O      -0.62; O      -0.84; O      -0.64; O      -0.63; H       0.33; H       0.30; 
@             H       0.31; H       0.31; H       0.33; H       0.33; H       0.34; H       0.33; 
   1  Level shift: doubly occupied orbital energies shifted by -2.00D-01

 DIIS Fock eigenvalues in symmetry 1
      -20.70308      -20.70297      -20.69444      -20.48576      -15.99436
       -1.53500       -1.53161       -1.51513       -1.45217       -1.41541
       -0.96006       -0.94210       -0.92204       -0.90466       -0.90276
       -0.85799       -0.78550       -0.77176       -0.76678       -0.73938
       -0.73732       -0.72788       -0.72377       -0.65920       -0.62487
        0.11018        0.15617        0.16802        0.19612        0.22852
        0.24060        0.25175        0.26973        0.29184        0.31891
        0.33843        0.44656        0.46303        0.51114        0.54509
        0.54866        0.57673        0.58043        0.59607        0.60083
        0.61822        0.62744        0.82935        0.88042        0.91410
        0.96999        0.97562        0.99436        1.03186        1.04805
        1.06846        1.08220        1.09377        1.10582        1.11475
        1.14733        1.15920        1.19028        1.28141        1.29775
        1.33068        1.36514        1.39277        1.43624        1.45492
        1.47375        1.47795        1.48786        1.54521        1.55139
        1.57036        1.62104        1.66081        1.67603        1.71415
        1.72609        1.73962        1.79662        1.82547        1.82738
        1.87424        1.88616        1.98674        2.00411        2.11112
        2.15491        2.18393        2.19212        2.20335        2.27004
        2.29289        2.30537        2.32174        2.41114        2.46217
        2.53716        2.62044        2.62825        2.66936        2.68933
        2.70508        2.73840        2.75439        2.79583        2.80958
        2.83053        2.87925        2.94232        3.07650        3.30551
        3.36661        3.41435        3.44247        3.44453        3.48664
        3.50492        3.50592        3.50772        3.60112        3.62885
        3.64189        3.65189        3.69683        3.96261        4.00759
        4.01806        4.07778        4.16940        4.18363        4.26066
        4.26550        4.46283        4.98082        5.10324        5.32428
        5.39807        5.45442        5.48273        5.66807        5.74964
        5.77105        5.79792        6.08167        6.08486        6.11528
        6.21899       36.79205       51.55929       51.56536       51.56863
       51.77668
 Time used in FCKEIG, thr_jaco:   4.21D-01  4.30D-02  1.66D-04
 CPU and wall times used in FCKEIG, THR_FCKEIG:   4.21D-01  4.30D-02  3.80D-02
 -----------------------------------------------------------------------------

 *** DIIS iteration number    2
 RDSUPM called. NFMAT, ISYMDM(1:NFMAT)                     1
                     1

 ITDIIS, energy, error norm, change in energy, scr.thr., difden:
@ DIIS iter.   2    -360.640446533        9.55317D-01   -7.83D-01  -20    F

 (DIIS_RED) Control Parameters C2DIIS =         F NEVC =    2


 (DIIS_RED) B matrix:

               Column   1     Column   2
       1      14.42387371
       2       0.74622731     0.91263064
    ==== End of matrix output ====

 DIIS C vector; C2DIIS = F, LAMBDA = -9.11D-01
    0.012020    0.987980
* Read MO coefficients from SIRIUS.RST with label "NEWORB  " and header info: 31Dec18  DIIS   2
      Virial theorem: -V/T =      2.004566
@      MULPOP N      -0.65; H       0.25; H       0.21; H       0.22; O      -0.56; O      -0.63; O      -0.59; O      -0.52; H       0.31; H       0.26; 
@             H       0.22; H       0.30; H       0.31; H       0.30; H       0.27; H       0.29; 
   2  Level shift: doubly occupied orbital energies shifted by -1.00D-01

 DIIS Fock eigenvalues in symmetry 1
      -20.72113      -20.67201      -20.66889      -20.66036      -15.51922
       -1.43105       -1.42556       -1.41048       -1.40892       -1.20440
       -0.79894       -0.79202       -0.78658       -0.77990       -0.70885
       -0.69387       -0.68135       -0.66808       -0.66775       -0.66608
       -0.62233       -0.61108       -0.60642       -0.60194       -0.50577
        0.15396        0.18837        0.19868        0.20383        0.24705
        0.26871        0.27901        0.30344        0.33184        0.35803
        0.38539        0.50553        0.52313        0.55110        0.57749
        0.57911        0.60827        0.61775        0.63431        0.63729
        0.64346        0.69390        0.92129        0.96228        0.97867
        0.98424        1.00070        1.01231        1.03109        1.04502
        1.08371        1.09676        1.10448        1.11836        1.14673
        1.16124        1.17711        1.26749        1.31998        1.33866
        1.37808        1.42785        1.43818        1.47548        1.48451
        1.51923        1.53028        1.54577        1.58393        1.59666
        1.60564        1.64758        1.71192        1.73647        1.75736
        1.77171        1.83154        1.87741        1.88246        1.89339
        1.92837        1.95352        2.05176        2.09361        2.21888
        2.23443        2.23673        2.25097        2.26448        2.28441
        2.35634        2.36513        2.38144        2.48593        2.55096
        2.60699        2.68133        2.69250        2.71623        2.76381
        2.78092        2.80630        2.83108        2.86184        2.87290
        2.96205        3.04049        3.07247        3.21701        3.40960
        3.42993        3.44504        3.45869        3.49507        3.50313
        3.52054        3.52551        3.52927        3.56051        3.62295
        3.65794        3.66840        3.67249        3.97815        4.01130
        4.03115        4.03978        4.18167        4.18881        4.20165
        4.28026        4.65393        5.19935        5.29711        5.30943
        5.35237        5.38999        5.45961        5.62905        5.66047
        5.74354        5.77142        6.07671        6.08921        6.09469
        6.12634       37.16057       51.44740       51.49610       51.49937
       51.50582
 Time used in FCKEIG, thr_jaco:   2.97D-01  3.00D-02  4.17D-05
 CPU and wall times used in FCKEIG, THR_FCKEIG:   2.97D-01  3.00D-02  9.55D-03
 -----------------------------------------------------------------------------

 *** DIIS iteration number    3
 RDSUPM called. NFMAT, ISYMDM(1:NFMAT)                     1
                     1

 ITDIIS, energy, error norm, change in energy, scr.thr., difden:
@ DIIS iter.   3    -360.699267289        3.61134D-01   -5.88D-02  -20    F

 (DIIS_RED) Control Parameters C2DIIS =         F NEVC =    3


 (DIIS_RED) B matrix:

               Column   1     Column   2     Column   3
       1      14.42387371
       2       0.74622731     0.91263064
       3       0.69479127     0.03299001     0.13041752
    ==== End of matrix output ====

 DIIS C vector; C2DIIS = F, LAMBDA = -9.52D-02
   -0.044074    0.106429    0.937645
* Read MO coefficients from SIRIUS.RST with label "NEWORB  " and header info: 31Dec18  DIIS   3
      Virial theorem: -V/T =      2.001770
@      MULPOP N      -0.58; H       0.22; H       0.19; H       0.19; O      -0.61; O      -0.72; O      -0.65; O      -0.56; H       0.34; H       0.29; 
@             H       0.28; H       0.35; H       0.34; H       0.33; H       0.28; H       0.31; 
   3  Level shift: doubly occupied orbital energies shifted by -5.00D-02

 DIIS Fock eigenvalues in symmetry 1
      -20.58341      -20.57888      -20.57487      -20.51640      -15.59571
       -1.36595       -1.35984       -1.34706       -1.30871       -1.18717
       -0.73226       -0.72761       -0.71566       -0.70763       -0.66999
       -0.65854       -0.61805       -0.60153       -0.59830       -0.57122
       -0.54840       -0.53516       -0.53156       -0.50225       -0.47258
        0.15830        0.19299        0.20296        0.21090        0.25073
        0.27285        0.28178        0.30620        0.33351        0.36292
        0.38520        0.50925        0.52436        0.56348        0.58727
        0.58894        0.61761        0.62706        0.64383        0.64555
        0.65327        0.69661        0.91930        0.96614        0.98382
        0.99701        1.02281        1.03358        1.04054        1.05708
        1.09400        1.10902        1.11695        1.13011        1.16052
        1.17206        1.18983        1.26614        1.32774        1.34906
        1.38547        1.43763        1.44118        1.49068        1.49889
        1.53146        1.54143        1.55719        1.59810        1.60686
        1.61740        1.66299        1.72269        1.74689        1.77065
        1.78225        1.83502        1.88142        1.89152        1.90211
        1.93765        1.95990        2.05846        2.09735        2.21709
        2.24378        2.24843        2.25908        2.26823        2.30598
        2.37186        2.37916        2.39589        2.50095        2.55516
        2.61562        2.69121        2.70402        2.72860        2.77138
        2.79033        2.81476        2.83752        2.87089        2.88246
        2.94762        3.01753        3.06124        3.20033        3.43797
        3.45277        3.47525        3.48112        3.49241        3.52554
        3.53322        3.54881        3.55022        3.57542        3.67284
        3.67950        3.68978        3.69553        3.99987        4.04549
        4.05999        4.07166        4.21057        4.22498        4.24358
        4.30378        4.60357        5.15691        5.28130        5.34856
        5.40061        5.41590        5.48276        5.68588        5.71550
        5.77056        5.79885        6.11697        6.12051        6.15526
        6.16328       37.03810       51.53184       51.53783       51.54551
       51.60108
 Time used in FCKEIG, thr_jaco:   2.60D-01  2.60D-02  1.58D-05
 CPU and wall times used in FCKEIG, THR_FCKEIG:   2.60D-01  2.60D-02  3.61D-03
 -----------------------------------------------------------------------------

 *** DIIS iteration number    4
 RDSUPM called. NFMAT, ISYMDM(1:NFMAT)                     1
                     1

 ITDIIS, energy, error norm, change in energy, scr.thr., difden:
@ DIIS iter.   4    -360.708041272        1.10012D-01   -8.77D-03  -20    F

 (DIIS_RED) Control Parameters C2DIIS =         F NEVC =    4


 (DIIS_RED) B matrix:

               Column   1     Column   2     Column   3     Column   4
       1      14.42387371
       2       0.74622731     0.91263064
       3       0.69479127     0.03299001     0.13041752
       4       0.00922294     0.08392364    -0.00594715     0.01210259
    ==== End of matrix output ====

 DIIS C vector; C2DIIS = F, LAMBDA = -3.83D-03
   -0.000531   -0.090073    0.100130    0.990474
* Read MO coefficients from SIRIUS.RST with label "NEWORB  " and header info: 31Dec18  DIIS   4
      Virial theorem: -V/T =      2.002800
@      MULPOP N      -0.64; H       0.23; H       0.20; H       0.21; O      -0.62; O      -0.69; O      -0.66; O      -0.56; H       0.35; H       0.29; 
@             H       0.27; H       0.35; H       0.35; H       0.33; H       0.29; H       0.31; 
   4  Level shift: doubly occupied orbital energies shifted by -2.50D-02

 DIIS Fock eigenvalues in symmetry 1
      -20.56683      -20.56307      -20.55653      -20.53168      -15.54573
       -1.34466       -1.33892       -1.32482       -1.29668       -1.15413
       -0.71016       -0.70434       -0.69284       -0.68684       -0.64163
       -0.62667       -0.59435       -0.57698       -0.57471       -0.55425
       -0.52317       -0.50992       -0.50532       -0.48699       -0.44043
        0.15819        0.19198        0.20227        0.20873        0.25028
        0.27261        0.28219        0.30668        0.33546        0.36352
        0.38807        0.51182        0.52698        0.56363        0.58745
        0.58790        0.61664        0.62598        0.64189        0.64437
        0.65195        0.69896        0.92367        0.96917        0.98609
        0.99764        1.02403        1.02913        1.04265        1.05409
        1.09413        1.10951        1.11604        1.12930        1.16048
        1.17061        1.18929        1.26839        1.32814        1.34785
        1.38652        1.44080        1.44170        1.48829        1.49632
        1.52998        1.53996        1.55521        1.59604        1.60613
        1.61632        1.66114        1.72091        1.74589        1.76943
        1.78145        1.83816        1.88324        1.89026        1.90176
        1.93826        1.95965        2.06065        2.10042        2.22123
        2.24287        2.24706        2.26076        2.26842        2.30069
        2.36934        2.37679        2.39311        2.50112        2.55806
        2.61547        2.69013        2.70300        2.72676        2.77329
        2.79014        2.81365        2.83887        2.86935        2.88414
        2.95523        3.02666        3.06765        3.20746        3.43965
        3.45172        3.46798        3.47900        3.49495        3.52336
        3.53819        3.54640        3.55240        3.56390        3.66461
        3.67638        3.68759        3.69349        3.99752        4.04284
        4.05648        4.06360        4.20944        4.22193        4.23220
        4.30186        4.61635        5.16886        5.29153        5.34721
        5.37934        5.41321        5.47939        5.68332        5.69563
        5.76677        5.79492        6.11246        6.11717        6.14294
        6.15068       37.06274       51.52538       51.52961       51.53640
       51.56179
 Time used in FCKEIG, thr_jaco:   2.47D-01  2.50D-02  4.81D-06
 CPU and wall times used in FCKEIG, THR_FCKEIG:   2.47D-01  2.50D-02  1.10D-03
 -----------------------------------------------------------------------------

 *** DIIS iteration number    5
 RDSUPM called. NFMAT, ISYMDM(1:NFMAT)                     1
                     1

 ITDIIS, energy, error norm, change in energy, scr.thr., difden:
@ DIIS iter.   5    -360.709130174        2.37527D-02   -1.09D-03  -20    F

 (DIIS_RED) Control Parameters C2DIIS =         F NEVC =    5


 (DIIS_RED) B matrix:

               Column   1     Column   2     Column   3     Column   4     Column   5
       1      14.42387371
       2       0.74622731     0.91263064
       3       0.69479127     0.03299001     0.13041752
       4       0.00922294     0.08392364    -0.00594715     0.01210259
       5       0.01364493     0.00642862     0.00470903     0.00093326     0.00056419
    ==== End of matrix output ====

 DIIS C vector; C2DIIS = F, LAMBDA = -3.44D-04
    0.001349    0.002812   -0.051790   -0.106520    1.154149
* Read MO coefficients from SIRIUS.RST with label "NEWORB  " and header info: 31Dec18  DIIS   5
      Virial theorem: -V/T =      2.002402
@      MULPOP N      -0.64; H       0.23; H       0.20; H       0.21; O      -0.63; O      -0.71; O      -0.67; O      -0.57; H       0.35; H       0.30; 
@             H       0.28; H       0.35; H       0.35; H       0.34; H       0.29; H       0.32; 

 DIIS Fock eigenvalues in symmetry 1
      -20.54095      -20.53663      -20.53082      -20.50020      -15.51507
       -1.31935       -1.31347       -1.29948       -1.26939       -1.12747
       -0.68516       -0.67934       -0.66803       -0.66058       -0.61550
       -0.60043       -0.56946       -0.55198       -0.54960       -0.52731
       -0.49703       -0.48359       -0.47902       -0.45904       -0.41338
        0.15819        0.19178        0.20212        0.20872        0.25016
        0.27251        0.28224        0.30678        0.33577        0.36383
        0.38864        0.51218        0.52731        0.56405        0.58746
        0.58789        0.61654        0.62595        0.64158        0.64434
        0.65214        0.69946        0.92469        0.97030        0.98669
        0.99791        1.02497        1.03059        1.04351        1.05562
        1.09448        1.11040        1.11611        1.12929        1.16100
        1.17151        1.18972        1.26908        1.32849        1.34800
        1.38695        1.44150        1.44244        1.48841        1.49672
        1.52978        1.53959        1.55479        1.59629        1.60611
        1.61658        1.66157        1.72049        1.74570        1.76944
        1.78141        1.83854        1.88347        1.88980        1.90155
        1.93860        1.95940        2.06099        2.10104        2.22189
        2.24267        2.24668        2.26077        2.26875        2.30127
        2.36912        2.37644        2.39271        2.50166        2.55875
        2.61524        2.68967        2.70279        2.72669        2.77344
        2.78986        2.81304        2.83893        2.86866        2.88416
        2.95650        3.02805        3.06882        3.20873        3.44110
        3.45249        3.46955        3.47930        3.49656        3.52352
        3.53918        3.54677        3.55341        3.56623        3.66659
        3.67693        3.68810        3.69368        3.99769        4.04350
        4.05723        4.06515        4.20973        4.22259        4.23441
        4.30211        4.61921        5.17137        5.29372        5.34830
        5.38326        5.41389        5.48046        5.68373        5.69921
        5.76743        5.79546        6.11266        6.11737        6.14621
        6.15128       37.06826       51.52609       51.53050       51.53787
       51.56808
 Time used in FCKEIG, thr_jaco:   2.38D-01  2.40D-02  1.04D-06
 CPU and wall times used in FCKEIG, THR_FCKEIG:   2.38D-01  2.40D-02  2.38D-04
 -----------------------------------------------------------------------------

 *** DIIS iteration number    6
 RDSUPM called. NFMAT, ISYMDM(1:NFMAT)                     1
                     1

 ITDIIS, energy, error norm, change in energy, scr.thr., difden:
@ DIIS iter.   6    -360.709214576        8.39772D-03   -8.44D-05  -20    F

 (DIIS_RED) Control Parameters C2DIIS =         F NEVC =    6


 (DIIS_RED) B matrix:

               Column   1     Column   2     Column   3     Column   4     Column   5     Column   6
       1      14.42387371
       2       0.74622731     0.91263064
       3       0.69479127     0.03299001     0.13041752
       4       0.00922294     0.08392364    -0.00594715     0.01210259
       5       0.01364493     0.00642862     0.00470903     0.00093326     0.00056419
       6      -0.00170912    -0.00033954     0.00063584     0.00023341     0.00006739     0.00007052
    ==== End of matrix output ====

 DIIS C vector; C2DIIS = F, LAMBDA = -3.90D-05
    0.000541    0.008173   -0.019809   -0.094997    0.174052    0.932040
* Read MO coefficients from SIRIUS.RST with label "NEWORB  " and header info: 31Dec18  DIIS   6
      Virial theorem: -V/T =      2.002530
@      MULPOP N      -0.64; H       0.23; H       0.20; H       0.21; O      -0.64; O      -0.71; O      -0.67; O      -0.57; H       0.35; H       0.30; 
@             H       0.28; H       0.35; H       0.36; H       0.34; H       0.29; H       0.32; 

 DIIS Fock eigenvalues in symmetry 1
      -20.54110      -20.53715      -20.53078      -20.50231      -15.51881
       -1.31933       -1.31361       -1.29938       -1.26992       -1.12864
       -0.68541       -0.67952       -0.66813       -0.66125       -0.61643
       -0.60136       -0.56975       -0.55211       -0.54992       -0.52795
       -0.49682       -0.48356       -0.47877       -0.45941       -0.41439
        0.15806        0.19167        0.20203        0.20860        0.25008
        0.27243        0.28210        0.30664        0.33559        0.36367
        0.38834        0.51184        0.52700        0.56379        0.58737
        0.58775        0.61643        0.62577        0.64140        0.64419
        0.65191        0.69914        0.92424        0.96973        0.98631
        0.99789        1.02484        1.03030        1.04310        1.05523
        1.09432        1.11026        1.11600        1.12920        1.16072
        1.17119        1.18961        1.26860        1.32834        1.34794
        1.38672        1.44115        1.44194        1.48820        1.49643
        1.52957        1.53942        1.55459        1.59605        1.60590
        1.61632        1.66131        1.72032        1.74546        1.76926
        1.78122        1.83814        1.88308        1.88962        1.90129
        1.93831        1.95909        2.06066        2.10060        2.22127
        2.24237        2.24643        2.26040        2.26825        2.30085
        2.36888        2.37628        2.39253        2.50125        2.55825
        2.61495        2.68947        2.70254        2.72646        2.77312
        2.78960        2.81280        2.83861        2.86839        2.88393
        2.95554        3.02692        3.06793        3.20780        3.44045
        3.45230        3.46909        3.47925        3.49560        3.52346
        3.53859        3.54655        3.55277        3.56554        3.66608
        3.67681        3.68785        3.69362        3.99762        4.04334
        4.05690        4.06463        4.20976        4.22233        4.23375
        4.30204        4.61726        5.16963        5.29225        5.34790
        5.38217        5.41397        5.48009        5.68376        5.69812
        5.76716        5.79529        6.11253        6.11735        6.14514
        6.15092       37.06461       51.52612       51.53034       51.53734
       51.56603
 Time used in FCKEIG, thr_jaco:   2.38D-01  2.40D-02  3.67D-07
 CPU and wall times used in FCKEIG, THR_FCKEIG:   2.38D-01  2.40D-02  8.40D-05
 -----------------------------------------------------------------------------

 *** DIIS iteration number    7
 RDSUPM called. NFMAT, ISYMDM(1:NFMAT)                     1
                     1

 ITDIIS, energy, error norm, change in energy, scr.thr., difden:
@ DIIS iter.   7    -360.709222293        2.57125D-03   -7.72D-06  -20    F

 (DIIS_RED) Control Parameters C2DIIS =         F NEVC =    7


 (DIIS_RED) B matrix:

               Column   1     Column   2     Column   3     Column   4     Column   5     Column   6
       1      14.42387371
       2       0.74622731     0.91263064
       3       0.69479127     0.03299001     0.13041752
       4       0.00922294     0.08392364    -0.00594715     0.01210259
       5       0.01364493     0.00642862     0.00470903     0.00093326     0.00056419
       6      -0.00170912    -0.00033954     0.00063584     0.00023341     0.00006739     0.00007052
       7       0.00064441    -0.00004830     0.00010197    -0.00000212     0.00004013     0.00000179

               Column   7
       7       0.00000661
    ==== End of matrix output ====

 DIIS C vector; C2DIIS = F, LAMBDA = -1.46D-06
   -0.000239   -0.001499    0.008424    0.028869   -0.172039   -0.028999    1.165483
* Read MO coefficients from SIRIUS.RST with label "NEWORB  " and header info: 31Dec18  DIIS   7
      Virial theorem: -V/T =      2.002503
@      MULPOP N      -0.64; H       0.23; H       0.20; H       0.21; O      -0.64; O      -0.71; O      -0.68; O      -0.57; H       0.35; H       0.30; 
@             H       0.28; H       0.35; H       0.36; H       0.34; H       0.29; H       0.32; 

 DIIS Fock eigenvalues in symmetry 1
      -20.54113      -20.53711      -20.53084      -20.50163      -15.51816
       -1.31929       -1.31357       -1.29934       -1.26959       -1.12841
       -0.68543       -0.67951       -0.66815       -0.66104       -0.61626
       -0.60123       -0.56982       -0.55219       -0.55000       -0.52773
       -0.49674       -0.48345       -0.47866       -0.45905       -0.41413
        0.15809        0.19167        0.20204        0.20865        0.25008
        0.27244        0.28213        0.30666        0.33563        0.36376
        0.38839        0.51193        0.52707        0.56390        0.58741
        0.58777        0.61645        0.62579        0.64140        0.64421
        0.65197        0.69923        0.92437        0.96989        0.98635
        0.99788        1.02493        1.03048        1.04318        1.05542
        1.09435        1.11037        1.11601        1.12921        1.16081
        1.17132        1.18965        1.26871        1.32839        1.34797
        1.38677        1.44128        1.44203        1.48825        1.49651
        1.52955        1.53939        1.55457        1.59612        1.60591
        1.61638        1.66143        1.72030        1.74544        1.76933
        1.78127        1.83819        1.88313        1.88960        1.90128
        1.93841        1.95911        2.06076        2.10070        2.22137
        2.24238        2.24642        2.26042        2.26831        2.30097
        2.36885        2.37625        2.39250        2.50137        2.55835
        2.61495        2.68944        2.70253        2.72652        2.77315
        2.78957        2.81276        2.83863        2.86837        2.88406
        2.95572        3.02712        3.06811        3.20796        3.44062
        3.45237        3.46927        3.47927        3.49580        3.52348
        3.53871        3.54657        3.55289        3.56586        3.66634
        3.67687        3.68789        3.69365        3.99763        4.04341
        4.05697        4.06484        4.20978        4.22239        4.23405
        4.30207        4.61764        5.16992        5.29251        5.34798
        5.38262        5.41398        5.48014        5.68375        5.69854
        5.76719        5.79531        6.11253        6.11734        6.14555
        6.15095       37.06524       51.52606       51.53031       51.53739
       51.56669
 Time used in FCKEIG, thr_jaco:   2.28D-01  2.30D-02  1.12D-07
 CPU and wall times used in FCKEIG, THR_FCKEIG:   2.28D-01  2.30D-02  2.57D-05
 -----------------------------------------------------------------------------

 *** DIIS iteration number    8
 RDSUPM called. NFMAT, ISYMDM(1:NFMAT)                     1
                     1

 ITDIIS, energy, error norm, change in energy, scr.thr., difden:
@ DIIS iter.   8    -360.709223095        3.92285D-04   -8.03D-07  -20    F

 (DIIS_RED) Control Parameters C2DIIS =         F NEVC =    8


 (DIIS_RED) B matrix:

               Column   1     Column   2     Column   3     Column   4     Column   5     Column   6
       1      14.42387371
       2       0.74622731     0.91263064
       3       0.69479127     0.03299001     0.13041752
       4       0.00922294     0.08392364    -0.00594715     0.01210259
       5       0.01364493     0.00642862     0.00470903     0.00093326     0.00056419
       6      -0.00170912    -0.00033954     0.00063584     0.00023341     0.00006739     0.00007052
       7       0.00064441    -0.00004830     0.00010197    -0.00000212     0.00004013     0.00000179
       8       0.00006577     0.00000409    -0.00000067     0.00000359     0.00000119     0.00000158

               Column   7     Column   8
       7       0.00000661
       8       0.00000040     0.00000015
    ==== End of matrix output ====

 DIIS C vector; C2DIIS = F, LAMBDA = -8.78D-08
    0.000006   -0.000018   -0.000510   -0.001401    0.019238   -0.030078   -0.159464    1.172226
* Read MO coefficients from SIRIUS.RST with label "NEWORB  " and header info: 31Dec18  DIIS   8
      Virial theorem: -V/T =      2.002518
@      MULPOP N      -0.64; H       0.23; H       0.20; H       0.21; O      -0.64; O      -0.71; O      -0.68; O      -0.57; H       0.35; H       0.30; 
@             H       0.28; H       0.35; H       0.36; H       0.34; H       0.29; H       0.32; 

 DIIS Fock eigenvalues in symmetry 1
      -20.54108      -20.53709      -20.53078      -20.50167      -15.51819
       -1.31927       -1.31356       -1.29932       -1.26960       -1.12842
       -0.68542       -0.67949       -0.66813       -0.66105       -0.61627
       -0.60124       -0.56982       -0.55220       -0.55001       -0.52775
       -0.49672       -0.48344       -0.47864       -0.45905       -0.41415
        0.15809        0.19167        0.20204        0.20866        0.25008
        0.27244        0.28213        0.30666        0.33563        0.36375
        0.38839        0.51193        0.52706        0.56389        0.58741
        0.58777        0.61645        0.62579        0.64139        0.64421
        0.65197        0.69922        0.92436        0.96988        0.98635
        0.99787        1.02494        1.03048        1.04317        1.05542
        1.09435        1.11038        1.11602        1.12922        1.16081
        1.17132        1.18965        1.26871        1.32840        1.34798
        1.38677        1.44127        1.44202        1.48825        1.49651
        1.52954        1.53939        1.55456        1.59612        1.60591
        1.61638        1.66142        1.72030        1.74544        1.76932
        1.78126        1.83819        1.88312        1.88960        1.90128
        1.93840        1.95910        2.06075        2.10069        2.22136
        2.24237        2.24642        2.26041        2.26830        2.30097
        2.36885        2.37625        2.39250        2.50135        2.55834
        2.61495        2.68944        2.70253        2.72653        2.77314
        2.78957        2.81276        2.83862        2.86836        2.88403
        2.95570        3.02711        3.06809        3.20795        3.44062
        3.45238        3.46927        3.47928        3.49580        3.52349
[...]

 Principal values of diagonalized transition strength matrix:

             a.u.               
 1      -0.00000000
 2      -0.00000000
 3       0.00007844

 Principal axis of diagonalized transition strength matrix:


               Column   1     Column   2     Column   3
       1      -0.24063532     0.90934459     0.33939220
       2       0.25835362    -0.27704480     0.92547263
       3       0.93560037     0.31038461    -0.16826570
    ==== End of matrix output ====


 CCSD   oscillator strength matrix for state nr. 13 of symmetry 1
 CCSD  excitation energy:15.15911321


               Column   1     Column   2     Column   3
       1     9.130542D-05   2.489768D-04  -4.526757D-05
       2     2.489768D-04   6.789228D-04  -1.234394D-04
       3    -4.526757D-05  -1.234394D-04   2.244172D-05
    ==== End of matrix output ====

 Principal values of diagonalized oscillator strength matrix:

             a.u.               
 1      -0.00000000
 2      -0.00000000
 3       0.00079267

 Principal axis of diagonalized oscillator strength matrix:


               Column   1     Column   2     Column   3
       1      -0.24063532     0.90934459     0.33939220
       2       0.25835362    -0.27704480     0.92547263
       3       0.93560037     0.31038461    -0.16826570
    ==== End of matrix output ====


 CCSD  Transition strength matrix for state nr. 14 of symmetry 1
 CCSD  excitation energy:15.19214092

 Gauge: length

               Column   1     Column   2     Column   3
       1     1.225588D-04  -1.013489D-04  -3.167290D-05
       2    -1.013489D-04   8.380922D-05   2.619148D-05
       3    -3.167290D-05   2.619148D-05   8.185180D-06
    ==== End of matrix output ====

 Principal values of diagonalized transition strength matrix:

             a.u.               
 1      -0.00000000
 2       0.00000000
 3       0.00021455

 Principal axis of diagonalized transition strength matrix:


               Column   1     Column   2     Column   3
       1       0.65042128    -0.07565901     0.75579618
       2       0.68209275    -0.37964103    -0.62499774
       3       0.33421795     0.92203493    -0.19532014
    ==== End of matrix output ====


 CCSD   oscillator strength matrix for state nr. 14 of symmetry 1
 CCSD  excitation energy:15.19214092


               Column   1     Column   2     Column   3
       1       0.00124129    -0.00102647    -0.00032079
       2      -0.00102647     0.00084883     0.00026527
       3      -0.00032079     0.00026527     0.00008290
    ==== End of matrix output ====

 Principal values of diagonalized oscillator strength matrix:

             a.u.               
 1      -0.00000000
 2       0.00000000
 3       0.00217302

 Principal axis of diagonalized oscillator strength matrix:


               Column   1     Column   2     Column   3
       1       0.65042128    -0.07565901     0.75579618
       2       0.68209275    -0.37964103    -0.62499774
       3       0.33421795     0.92203493    -0.19532014
    ==== End of matrix output ====


 CCSD  Transition strength matrix for state nr. 15 of symmetry 1
 CCSD  excitation energy:15.27202720

 Gauge: length

               Column   1     Column   2     Column   3
       1     3.221893D-04   3.319478D-06   4.272941D-05
       2     3.319478D-06   3.393770D-08   4.384590D-07
       3     4.272941D-05   4.384590D-07   5.654832D-06
    ==== End of matrix output ====

 Principal values of diagonalized transition strength matrix:

             a.u.               
 1      -0.00000001
 2       0.00000000
 3       0.00032789

 Principal axis of diagonalized transition strength matrix:


               Column   1     Column   2     Column   3
       1      -0.13153488     0.00918690     0.99126897
       2       0.14605213     0.98922418     0.01021220
       3       0.98049342    -0.14612020     0.13145925
    ==== End of matrix output ====


 CCSD   oscillator strength matrix for state nr. 15 of symmetry 1
 CCSD  excitation energy:15.27202720


               Column   1     Column   2     Column   3
       1       0.00328032     0.00003380     0.00043504
       2       0.00003380     0.00000035     0.00000446
       3       0.00043504     0.00000446     0.00005757
    ==== End of matrix output ====

 Principal values of diagonalized oscillator strength matrix:

             a.u.               
 1      -0.00000012
 2       0.00000000
 3       0.00333837

 Principal axis of diagonalized oscillator strength matrix:


               Column   1     Column   2     Column   3
       1      -0.13153488     0.00918690     0.99126897
       2       0.14605213     0.98922418     0.01021220
       3       0.98049342    -0.14612020     0.13145925
    ==== End of matrix output ====

  Total time for    135 linear response residues:     103.03 seconds.
  

 *******************************************************************************
 *******************************************************************************
 *                                                                             *
 *                                                                             *
 *                   SUMMARY OF COUPLED CLUSTER CALCULATION                    *
 *                                                                             *
 *                                                                             *
 *******************************************************************************
 *******************************************************************************

                                                                                
                                                                                
            Total SCF   energy:                  -360.7092231188                
            Total MP2   energy:                  -361.8148193112                
            Total CCSD  energy:                  -361.8544390021                
                                                                                
                                                                                
            Total SCF   energy:                  -360.7092231188                
            Total RSTAR energy:                  -361.8544390021                
            Total CCSD  energy:                  -361.8545766826                
                                                                                
                                                                                
            Total SCF   energy:                  -360.7092231188                
            Total RSTAR energy:                  -361.8545766826                
            Total CCSD  energy:                  -361.8545775379                
                                                                                
                                                                                
            Total SCF   energy:                  -360.7092231188                
            Total RSTAR energy:                  -361.8545775379                
            Total CCSD  energy:                  -361.8545776633                
                                                                                
                                                                                
            Total SCF   energy:                  -360.7092231188                
            Total RSTAR energy:                  -361.8545776633                
            Total CCSD  energy:                  -361.8545776684                
                                                                                
                                                                                
            Total SCF   energy:                  -360.7092231188                
            Total RSTAR energy:                  -361.8545776684                
            Total CCSD  energy:                  -361.8545776687                
            CCSD Total  energy:                  -362.1935978599                
            CCSD E(QM/MM)     :                    -0.3352624237                
                                                                                
                                                                                
                                                                                
 +=============================================================================+
 |  sym. | Exci.  |        CCSD       Excitation energies            | ||T1||  |
 |(spin, |        +------------------------------------------------------------+
 | spat) |        |     Hartree    |       eV.      |     cm-1       |    %    |
 +=============================================================================+
 | ^1A   |    1   |    14.8291494  |     403.52168  |   3254622.070  |  88.37  |
 | ^1A   |    2   |    14.8959706  |     405.33998  |   3269287.622  |  88.86  |
 | ^1A   |    3   |    14.9028223  |     405.52642  |   3270791.390  |  88.76  |
 | ^1A   |    4   |    14.9529023  |     406.88917  |   3281782.696  |  88.29  |
 | ^1A   |    5   |    14.9828589  |     407.70433  |   3288357.409  |  87.99  |
 | ^1A   |    6   |    14.9882183  |     407.85017  |   3289533.650  |  88.05  |
 | ^1A   |    7   |    14.9999981  |     408.17071  |   3292119.028  |  88.10  |
 | ^1A   |    8   |    15.0255427  |     408.86581  |   3297725.407  |  88.06  |
 | ^1A   |    9   |    15.0351841  |     409.12817  |   3299841.447  |  88.09  |
 | ^1A   |   10   |    15.0527362  |     409.60579  |   3303693.705  |  88.08  |
 | ^1A   |   11   |    15.0849049  |     410.48114  |   3310753.903  |  88.05  |
 | ^1A   |   12   |    15.1228951  |     411.51491  |   3319091.798  |  87.92  |
 | ^1A   |   13   |    15.1591132  |     412.50045  |   3327040.752  |  88.04  |
 | ^1A   |   14   |    15.1921409  |     413.39918  |   3334289.496  |  87.83  |
 | ^1A   |   15   |    15.2720272  |     415.57300  |   3351822.508  |  87.98  |
 +=============================================================================+
                                                                                
                                                                                
     Total energies in Hartree:                                                 
             1 ^1A       -347.0291860251                                        
             2 ^1A       -346.9623648552                                        
             3 ^1A       -346.9555131845                                        
             4 ^1A       -346.9054331068                                        
             5 ^1A       -346.8754765106                                        
             6 ^1A       -346.8701171620                                        
             7 ^1A       -346.8583373149                                        
             8 ^1A       -346.8327927708                                        
             9 ^1A       -346.8231513819                                        
            10 ^1A       -346.8055992045                                        
            11 ^1A       -346.7734305746                                        
            12 ^1A       -346.7354403287                                        
            13 ^1A       -346.6992222297                                        
            14 ^1A       -346.6661945204                                        
            15 ^1A       -346.5863082401                                        
                                                                                
                                                                                
 +=============================================================================+
 |  sym. | Exci.  |        CCSD       Length   Gauge Oscillator Strength       |
 |(spin, |        +------------------------------------------------------------+
 | spat) |        | Dipole Strength(a.u.) | Oscillator strength  | Direction   |
 +=============================================================================+
 | ^1A   |    1   |        0.0004135      |      0.0040883       |  (Y,Z)      |
 | ^1A   |    2   |        0.0034389      |      0.0341505       |  (Y,Z)      |
 | ^1A   |    3   |        0.0034121      |      0.0339001       |  (Y,Z)      |
 | ^1A   |    4   |        0.0014774      |      0.0147274       |  (Y,Z)      |
 | ^1A   |    5   |        0.0005300      |      0.0052940       |  (Y,Z)      |
 | ^1A   |    6   |        0.0005531      |      0.0055265       |  (Y,Z)      |
 | ^1A   |    7   |        0.0005061      |      0.0050610       |  (Y,Z)      |
 | ^1A   |    8   |        0.0003508      |      0.0035139       |  (Y,Z)      |
 | ^1A   |    9   |        0.0005150      |      0.0051621       |  (Y,Z)      |
 | ^1A   |   10   |        0.0006252      |      0.0062739       |  (Y,Z)      |
 | ^1A   |   11   |        0.0003240      |      0.0032583       |  (Y,Z)      |
 | ^1A   |   12   |        0.0001880      |      0.0018953       |  (Y,Z)      |
 | ^1A   |   13   |        0.0000784      |      0.0007927       |  (Y,Z)      |
 | ^1A   |   14   |        0.0002146      |      0.0021730       |  (Y,Z)      |
 | ^1A   |   15   |        0.0003279      |      0.0033382       |  (Y,Z)      |
 +=============================================================================+

  1 a.u. =        27.21138 eV.  
  1 a.u. =    219474.62934 cm-1.
  

 *******************************************************************************
 *******************************************************************************
 *                                                                             *
 *                                                                             *
 *                      END OF COUPLED CLUSTER CALCULATION                     *
 *                                                                             *
 *                                                                             *
 *******************************************************************************
 *******************************************************************************


 CPU and wall time for CC :  473311.274   51750.760

 
     Date and time (Linux)  : Tue Jan  1 05:59:24 2019
     Host name              : n-62-23-14                              


                      .-------------------------------------.
                      | End of Coupled Cluster Section (CC) |
                      `-------------------------------------'

  Total CPU  time used in DALTON: 131 hours 41 minutes 15 seconds
  Total wall time used in DALTON:  14 hours 25 minutes 10 seconds

 
     Date and time (Linux)  : Tue Jan  1 05:59:24 2019
     Host name              : n-62-23-14                              
  

 +---------------------------------------------------------+ 
 | List of selected calculated molecular properties (a.u.) | 
 +---------------------------------------------------------+ 

  Properties are read from unit number                      4

 CCSD       properties :
 #  1 1 CCSD/MM  Ground state Energy =    -362.1935978599
 #  2 1 E_QM/MM  Ground state Energy =      -0.3352624237
 #  3 1 Sy: 1 Sp: 1 Exc:  1 E_tot:   -347.0291860251 w:     14.8291494111 E_grs:   -361.8583354362
 #  4 1 Exctot   Excited state Energy =    -347.0291860251
 #  5 1 Sy: 1 Sp: 1 Exc:  2 E_tot:   -346.9623648552 w:     14.8959705810 E_grs:   -361.8583354362
 #  6 1 Exctot   Excited state Energy =    -346.9623648552
 #  7 1 Sy: 1 Sp: 1 Exc:  3 E_tot:   -346.9555131845 w:     14.9028222517 E_grs:   -361.8583354362
 #  8 1 Exctot   Excited state Energy =    -346.9555131845
 #  9 1 Sy: 1 Sp: 1 Exc:  4 E_tot:   -346.9054331068 w:     14.9529023294 E_grs:   -361.8583354362
 # 10 1 Exctot   Excited state Energy =    -346.9054331068
 # 11 1 Sy: 1 Sp: 1 Exc:  5 E_tot:   -346.8754765106 w:     14.9828589256 E_grs:   -361.8583354362
 # 12 1 Exctot   Excited state Energy =    -346.8754765106
 # 13 1 Sy: 1 Sp: 1 Exc:  6 E_tot:   -346.8701171620 w:     14.9882182742 E_grs:   -361.8583354362
 # 14 1 Exctot   Excited state Energy =    -346.8701171620
 # 15 1 Sy: 1 Sp: 1 Exc:  7 E_tot:   -346.8583373149 w:     14.9999981213 E_grs:   -361.8583354362
 # 16 1 Exctot   Excited state Energy =    -346.8583373149
 # 17 1 Sy: 1 Sp: 1 Exc:  8 E_tot:   -346.8327927708 w:     15.0255426654 E_grs:   -361.8583354362
 # 18 1 Exctot   Excited state Energy =    -346.8327927708
 # 19 1 Sy: 1 Sp: 1 Exc:  9 E_tot:   -346.8231513819 w:     15.0351840544 E_grs:   -361.8583354362
 # 20 1 Exctot   Excited state Energy =    -346.8231513819
 # 21 1 Sy: 1 Sp: 1 Exc: 10 E_tot:   -346.8055992045 w:     15.0527362317 E_grs:   -361.8583354362
 # 22 1 Exctot   Excited state Energy =    -346.8055992045
 # 23 1 Sy: 1 Sp: 1 Exc: 11 E_tot:   -346.7734305746 w:     15.0849048616 E_grs:   -361.8583354362
 # 24 1 Exctot   Excited state Energy =    -346.7734305746
 # 25 1 Sy: 1 Sp: 1 Exc: 12 E_tot:   -346.7354403287 w:     15.1228951075 E_grs:   -361.8583354362
 # 26 1 Exctot   Excited state Energy =    -346.7354403287
 # 27 1 Sy: 1 Sp: 1 Exc: 13 E_tot:   -346.6992222297 w:     15.1591132065 E_grs:   -361.8583354362
 # 28 1 Exctot   Excited state Energy =    -346.6992222297
 # 29 1 Sy: 1 Sp: 1 Exc: 14 E_tot:   -346.6661945204 w:     15.1921409158 E_grs:   -361.8583354362
 # 30 1 Exctot   Excited state Energy =    -346.6661945204
 # 31 1 Sy: 1 Sp: 1 Exc: 15 E_tot:   -346.5863082401 w:     15.2720271961 E_grs:   -361.8583354362
 # 32 1 Exctot   Excited state Energy =    -346.5863082401
 # 33 1 |<O|XDIPLEN |i(14.829149)>| =     0.01607257
 # 35 1 |<O|XDIPLEN |i(14.895971)>| =     0.03387273
 # 37 1 |<O|XDIPLEN |i(14.902822)>| =     0.01202639
 # 39 1 |<O|XDIPLEN |i(14.952902)>| =     0.02672385
 # 41 1 |<O|XDIPLEN |i(14.982859)>| =     0.00290484
 # 43 1 |<O|XDIPLEN |i(14.988218)>| =     0.01689110
 # 45 1 |<O|XDIPLEN |i(14.999998)>| =     0.01273279
 # 47 1 |<O|XDIPLEN |i(15.025543)>| =     0.01831989
 # 49 1 |<O|XDIPLEN |i(15.035184)>| =     0.00224331
 # 51 1 |<O|XDIPLEN |i(15.052736)>| =     0.01055338
 # 53 1 |<O|XDIPLEN |i(15.084905)>| =     0.01768151
 # 55 1 |<O|XDIPLEN |i(15.122895)>| =     0.00509297
 # 57 1 |<O|XDIPLEN |i(15.159113)>| =     0.00300578
 # 59 1 |<O|XDIPLEN |i(15.192141)>| =     0.01107063
 # 61 1 |<O|XDIPLEN |i(15.272027)>| =     0.01794963
 # 63 1 |<O|YDIPLEN |i(14.829149)>| =     0.00065107
 # 65 1 |<O|YDIPLEN |i(14.895971)>| =     0.02584666
 # 67 1 |<O|YDIPLEN |i(14.902822)>| =     0.05371134
 # 69 1 |<O|YDIPLEN |i(14.952902)>| =     0.00006541
 # 71 1 |<O|YDIPLEN |i(14.982859)>| =     0.02282231
 # 73 1 |<O|YDIPLEN |i(14.988218)>| =     0.00833595
 # 75 1 |<O|YDIPLEN |i(14.999998)>| =     0.01188798
 # 77 1 |<O|YDIPLEN |i(15.025543)>| =     0.00384401
 # 79 1 |<O|YDIPLEN |i(15.035184)>| =     0.01380264
 # 81 1 |<O|YDIPLEN |i(15.052736)>| =     0.00763344
 # 83 1 |<O|YDIPLEN |i(15.084905)>| =     0.00279908
 # 85 1 |<O|YDIPLEN |i(15.122895)>| =     0.01194821
 # 87 1 |<O|YDIPLEN |i(15.159113)>| =     0.00819632
 # 89 1 |<O|YDIPLEN |i(15.192141)>| =     0.00915474
 # 91 1 |<O|YDIPLEN |i(15.272027)>| =     0.00018422
 # 93 1 |<O|ZDIPLEN |i(14.829149)>| =     0.01244147
 # 95 1 |<O|ZDIPLEN |i(14.895971)>| =     0.04029259
 # 97 1 |<O|ZDIPLEN |i(14.902822)>| =     0.01955940
 # 99 1 |<O|ZDIPLEN |i(14.952902)>| =     0.02762619
 #101 1 |<O|ZDIPLEN |i(14.982859)>| =     0.00084143
 #103 1 |<O|ZDIPLEN |i(14.988218)>| =     0.01408135
 #105 1 |<O|ZDIPLEN |i(14.999998)>| =     0.01423557
 #107 1 |<O|ZDIPLEN |i(15.025543)>| =     0.00062965
 #109 1 |<O|ZDIPLEN |i(15.035184)>| =     0.01787341
 #111 1 |<O|ZDIPLEN |i(15.052736)>| =     0.02134368
 #113 1 |<O|ZDIPLEN |i(15.084905)>| =     0.00187876
 #115 1 |<O|ZDIPLEN |i(15.122895)>| =     0.00439226
 #117 1 |<O|ZDIPLEN |i(15.159113)>| =     0.00149017
 #119 1 |<O|ZDIPLEN |i(15.192141)>| =     0.00286098
 #121 1 |<O|ZDIPLEN |i(15.272027)>| =     0.00237799

 THE_END   
