

     ************************************************************************
     *************** Dalton - An Electronic Structure Program ***************
     ************************************************************************

    This is output from DALTON release Dalton2017.alpha (2016)
         ( Web site: http://daltonprogram.org )

   ----------------------------------------------------------------------------

    NOTE:
     
    Dalton is an experimental code for the evaluation of molecular
    properties using (MC)SCF, DFT, CI, and CC wave functions.
    The authors accept no responsibility for the performance of
    the code or for the correctness of the results.
     
    The code (in whole or part) is provided under a licence and
    is not to be reproduced for further distribution without
    the written permission of the authors or their representatives.
     
    See the home page "http://daltonprogram.org" for further information.
     
    If results obtained with this code are published,
    the appropriate citations would be both of:
     
       K. Aidas, C. Angeli, K. L. Bak, V. Bakken, R. Bast,
       L. Boman, O. Christiansen, R. Cimiraglia, S. Coriani,
       P. Dahle, E. K. Dalskov, U. Ekstroem,
       T. Enevoldsen, J. J. Eriksen, P. Ettenhuber, B. Fernandez,
       L. Ferrighi, H. Fliegl, L. Frediani, K. Hald, A. Halkier,
       C. Haettig, H. Heiberg, T. Helgaker, A. C. Hennum,
       H. Hettema, E. Hjertenaes, S. Hoest, I.-M. Hoeyvik,
       M. F. Iozzi, B. Jansik, H. J. Aa. Jensen, D. Jonsson,
       P. Joergensen, J. Kauczor, S. Kirpekar,
       T. Kjaergaard, W. Klopper, S. Knecht, R. Kobayashi, H. Koch,
       J. Kongsted, A. Krapp, K. Kristensen, A. Ligabue,
       O. B. Lutnaes, J. I. Melo, K. V. Mikkelsen, R. H. Myhre,
       C. Neiss, C. B. Nielsen, P. Norman, J. Olsen,
       J. M. H. Olsen, A. Osted, M. J. Packer, F. Pawlowski,
       T. B. Pedersen, P. F. Provasi, S. Reine, Z. Rinkevicius,
       T. A. Ruden, K. Ruud, V. Rybkin, P. Salek, C. C. M. Samson,
       A. Sanchez de Meras, T. Saue, S. P. A. Sauer,
       B. Schimmelpfennig, K. Sneskov, A. H. Steindal,
       K. O. Sylvester-Hvid, P. R. Taylor, A. M. Teale,
       E. I. Tellgren, D. P. Tew, A. J. Thorvaldsen, L. Thoegersen,
       O. Vahtras, M. A. Watson, D. J. D. Wilson, M. Ziolkowski
       and H. Agren,
       "The Dalton quantum chemistry program system",
       WIREs Comput. Mol. Sci. 2014, 4:269–284 (doi: 10.1002/wcms.1172)
     
    and
     
       Dalton, a Molecular Electronic Structure Program,
       Release Dalton2017.alpha (2016), see http://daltonprogram.org
   ----------------------------------------------------------------------------

    Authors in alphabetical order (major contribution(s) in parenthesis):

  Kestutis Aidas,           Vilnius University,           Lithuania   (QM/MM)
  Celestino Angeli,         University of Ferrara,        Italy       (NEVPT2)
  Keld L. Bak,              UNI-C,                        Denmark     (AOSOPPA, non-adiabatic coupling, magnetic properties)
  Vebjoern Bakken,          University of Oslo,           Norway      (DALTON; geometry optimizer, symmetry detection)
  Radovan Bast,             UiT The Arctic U. of Norway,  Norway      (DALTON installation and execution frameworks)
  Pablo Baudin,             University of Valencia,       Spain       (Cholesky excitation energies)
  Linus Boman,              NTNU,                         Norway      (Cholesky decomposition and subsystems)
  Ove Christiansen,         Aarhus University,            Denmark     (CC module)
  Renzo Cimiraglia,         University of Ferrara,        Italy       (NEVPT2)
  Sonia Coriani,            University of Trieste,        Italy       (CC module, MCD in RESPONS)
  Janusz Cukras,            University of Trieste,        Italy       (MChD in RESPONS)
  Paal Dahle,               University of Oslo,           Norway      (Parallelization)
  Erik K. Dalskov,          UNI-C,                        Denmark     (SOPPA)
  Thomas Enevoldsen,        Univ. of Southern Denmark,    Denmark     (SOPPA)
  Janus J. Eriksen,         Aarhus University,            Denmark     (Polarizable embedding model, TDA)
  Rasmus Faber,             University of Copenhagen,     Denmark     (Vib.avg. NMR with SOPPA, parallel AO-SOPPA)
  Berta Fernandez,          U. of Santiago de Compostela, Spain       (doublet spin, ESR in RESPONS)
  Lara Ferrighi,            Aarhus University,            Denmark     (PCM Cubic response)
  Heike Fliegl,             University of Oslo,           Norway      (CCSD(R12))
  Luca Frediani,            UiT The Arctic U. of Norway,  Norway      (PCM)
  Bin Gao,                  UiT The Arctic U. of Norway,  Norway      (Gen1Int library)
  Christof Haettig,         Ruhr-University Bochum,       Germany     (CC module)
  Kasper Hald,              Aarhus University,            Denmark     (CC module)
  Asger Halkier,            Aarhus University,            Denmark     (CC module)
  Frederik Beyer Hansen,    University of Copenhagen,     Denmark     (Parallel AO-SOPPA)
  Erik D. Hedegaard,        Univ. of Southern Denmark,    Denmark     (Polarizable embedding model, QM/MM)
  Hanne Heiberg,            University of Oslo,           Norway      (geometry analysis, selected one-electron integrals)
  Trygve Helgaker,          University of Oslo,           Norway      (DALTON; ABACUS, ERI, DFT modules, London, and much more)
  Alf Christian Hennum,     University of Oslo,           Norway      (Parity violation)
  Hinne Hettema,            University of Auckland,       New Zealand (quadratic response in RESPONS; SIRIUS supersymmetry)
  Eirik Hjertenaes,         NTNU,                         Norway      (Cholesky decomposition)
  Pi A. B. Haase,           University of Copenhagen,     Denmark     (Triplet AO-SOPPA)
  Maria Francesca Iozzi,    University of Oslo,           Norway      (RPA)
  Brano Jansik              Technical Univ. of Ostrava    Czech Rep.  (DFT cubic response)
  Hans Joergen Aa. Jensen,  Univ. of Southern Denmark,    Denmark     (DALTON; SIRIUS, RESPONS, ABACUS modules, London, and much more)
  Dan Jonsson,              UiT The Arctic U. of Norway,  Norway      (cubic response in RESPONS module)
  Poul Joergensen,          Aarhus University,            Denmark     (RESPONS, ABACUS, and CC modules)
  Maciej Kaminski,          University of Warsaw,         Poland      (CPPh in RESPONS)
  Joanna Kauczor,           Linkoeping University,        Sweden      (Complex polarization propagator (CPP) module)
  Sheela Kirpekar,          Univ. of Southern Denmark,    Denmark     (Mass-velocity & Darwin integrals)
  Wim Klopper,              KIT Karlsruhe,                Germany     (R12 code in CC, SIRIUS, and ABACUS modules)
  Stefan Knecht,            ETH Zurich,                   Switzerland (Parallel CI and MCSCF)
  Rika Kobayashi,           Australian National Univ.,    Australia   (DIIS in CC, London in MCSCF)
  Henrik Koch,              NTNU,                         Norway      (CC module, Cholesky decomposition)
  Jacob Kongsted,           Univ. of Southern Denmark,    Denmark     (Polarizable embedding model, QM/MM)
  Andrea Ligabue,           University of Modena,         Italy       (CTOCD, AOSOPPA)
  Nanna H. List             Univ. of Southern Denmark,    Denmark     (Polarizable embedding model)
  Ola B. Lutnaes,           University of Oslo,           Norway      (DFT Hessian)
  Juan I. Melo,             University of Buenos Aires,   Argentina   (LRESC, Relativistic Effects on NMR Shieldings)
  Kurt V. Mikkelsen,        University of Copenhagen,     Denmark     (MC-SCRF and QM/MM)
  Rolf H. Myhre,            NTNU,                         Norway      (Cholesky, subsystems and ECC2)
  Christian Neiss,          Univ. Erlangen-Nuernberg,     Germany     (CCSD(R12))
  Christian B. Nielsen,     University of Copenhagen,     Denmark     (QM/MM)
  Patrick Norman,           Linkoeping University,        Sweden      (Cubic response and complex frequency response in RESPONS)
  Jeppe Olsen,              Aarhus University,            Denmark     (SIRIUS CI/density modules)
  Jogvan Magnus H. Olsen,   Univ. of Southern Denmark,    Denmark     (Polarizable embedding model, QM/MM)
  Anders Osted,             Copenhagen University,        Denmark     (QM/MM)
  Martin J. Packer,         University of Sheffield,      UK          (SOPPA)
  Filip Pawlowski,          Kazimierz Wielki University,  Poland      (CC3)
  Morten N. Pedersen,       Univ. of Southern Denmark,    Denmark     (Polarizable embedding model)
  Thomas B. Pedersen,       University of Oslo,           Norway      (Cholesky decomposition)
  Patricio F. Provasi,      University of Northeastern,   Argentina   (Analysis of coupling constants in localized orbitals)
  Zilvinas Rinkevicius,     KTH Stockholm,                Sweden      (open-shell DFT, ESR)
  Elias Rudberg,            KTH Stockholm,                Sweden      (DFT grid and basis info)
  Torgeir A. Ruden,         University of Oslo,           Norway      (Numerical derivatives in ABACUS)
  Kenneth Ruud,             UiT The Arctic U. of Norway,  Norway      (DALTON; ABACUS magnetic properties and much more)
  Pawel Salek,              KTH Stockholm,                Sweden      (DALTON; DFT code)
  Claire C. M. Samson       University of Karlsruhe       Germany     (Boys localization, r12 integrals in ERI)
  Alfredo Sanchez de Meras, University of Valencia,       Spain       (CC module, Cholesky decomposition)
  Trond Saue,               Paul Sabatier University,     France      (direct Fock matrix construction)
  Stephan P. A. Sauer,      University of Copenhagen,     Denmark     (SOPPA(CCSD), SOPPA prop., AOSOPPA, vibrational g-factors)
  Bernd Schimmelpfennig,    Forschungszentrum Karlsruhe,  Germany     (AMFI module)
  Kristian Sneskov,         Aarhus University,            Denmark     (Polarizable embedding model, QM/MM)
  Arnfinn H. Steindal,      UiT The Arctic U. of Norway,  Norway      (parallel QM/MM, Polarizable embedding model)
  Casper Steinmann,         Univ. of Southern Denmark,    Denmark     (QFIT, Polarizable embedding model)
  K. O. Sylvester-Hvid,     University of Copenhagen,     Denmark     (MC-SCRF)
  Peter R. Taylor,          VLSCI/Univ. of Melbourne,     Australia   (Symmetry handling ABACUS, integral transformation)
  Andrew M. Teale,          University of Nottingham,     England     (DFT-AC, DFT-D)
  David P. Tew,             University of Bristol,        England     (CCSD(R12))
  Olav Vahtras,             KTH Stockholm,                Sweden      (triplet response, spin-orbit, ESR, TDDFT, open-shell DFT)
  David J. Wilson,          La Trobe University,          Australia   (DFT Hessian and DFT magnetizabilities)
  Hans Agren,               KTH Stockholm,                Sweden      (SIRIUS module, RESPONS, MC-SCRF solvation model)
 --------------------------------------------------------------------------------

     Date and time (Linux)  : Fri Dec 28 12:51:01 2018
     Host name              : n-62-23-24                              

 * Work memory size             :  1280000000 =  9.537 gigabytes.

 * Directories for basis set searches:
   1) /zhome/37/3/129401/NH3NH4/CCSD/AIMD_SAMPLING/nh3_4h2o_nd
   2) /zhome/9a/4/124800/source/dalton/build-mlcc/basis


Compilation information
-----------------------

 Who compiled             | rfaber
 Host                     | hpclogin1
 System                   | Linux-2.6.32-696.1.1.el6.x86_64
 CMake generator          | Unix Makefiles
 Processor                | x86_64
 64-bit integers          | ON
 MPI                      | OFF
 Fortran compiler         | /opt/intel/2016update2/compilers_and_libraries_201
                          | 6.2.181/linux/bin/intel64/ifort
 Fortran compiler version | ifort (IFORT) 16.0.2 20160204
 C compiler               | /opt/intel/2016update2/compilers_and_libraries_201
                          | 6.2.181/linux/bin/intel64/icc
 C compiler version       | icc (ICC) 16.0.2 20160204
 C++ compiler             | /opt/intel/2016update2/compilers_and_libraries_201
                          | 6.2.181/linux/bin/intel64/icpc
 C++ compiler version     | icpc (ICC) 16.0.2 20160204
 Static linking           | OFF
 Last Git revision        | bb4d1599ca5680a9f3980451fc8bbefdba436d59
 Git branch               | mlcc
 Configuration time       | 2017-06-13 16:11:03.928841


   Content of the .dal input file
 ----------------------------------

**DALTON
.RUN WAVE FUNCTIONS
*QMMM
.QMMM
**INTEGRALS
.DIPLEN
**WAVE FUNCTIONS
.CC
*PRINT
!To check the origin of excit
.PRINTL
   0 11
*SCF INP
.THRESH
1.0D-7
*CC INP
.CCSD
.THRLEQ
 1.0D-9
.THRENR
 1.0D-10
.FROIMP
4
0
.PRINT
 1
.MAX IT
 1200
.MAXRED
 1200
.MXLRV
1199
*CCSLV
.CCMM
.MXSLIT
200
.MXINIT
4 5
*CCEXCI
.NCCEXC
 15
.CVSEPARA
1
1
*CCLRSD
.DIPOLE
**END OF DALTON INPUT


   Content of the .mol file
 ----------------------------

ATOMBASIS


Atomtypes=4 Charge=0 Nosymm Angstrom
   7.00000    1    Basis=6-311G**
N          0.000000        0.000000        0.000000
   1.00000    3    Basis=6-311G**
H         -0.139126        0.299718        0.958559
H         -0.826417       -0.536781       -0.199832
H          0.816750       -0.652435        0.015697
   8.00000    4    Basis=6-311G**
O         -3.378967       -0.355863        0.618066
O          2.442559       -2.416316        0.394689
O         -0.627347        1.790597       -1.998441
O          0.245215       -0.017668        3.592384
   1.00000    8    Basis=6-311G**
H         -4.376084       -0.229430        0.759268
H         -3.321397        0.091234       -0.294525
H          2.508621       -1.732077        1.102529
H          3.309772       -2.873978        0.326525
H         -0.080963        1.576754       -2.823110
H         -0.194085        1.173680       -1.213443
H         -0.648919        0.067444        3.216115
H          0.752022        0.775414        3.301636


       *******************************************************************
       *********** Output from DALTON general input processing ***********
       *******************************************************************

 --------------------------------------------------------------------------------
   Overall default print level:    0
   Print level for DALTON.STAT:    1

    HERMIT 1- and 2-electron integral sections will be executed
    "Old" integral transformation used (limited to max 255 basis functions)
    Wave function sections will be executed (SIRIUS module)
 --------------------------------------------------------------------------------


 Changes of defaults for *QMMM  :
 --------------------------------

 +------------------+
 |  WORD: | CHANGE: |
 +------------------+
 |   QMMM |       T |
 +------------------+
 


   ****************************************************************************
   *************** Output of molecule and basis set information ***************
   ****************************************************************************


    The two title cards from your ".mol" input:
    ------------------------------------------------------------------------
 1:                                                                         
 2:                                                                         
    ------------------------------------------------------------------------

  Coordinates are entered in Angstrom and converted to atomic units.
          - Conversion factor : 1 bohr = 0.52917721 A

  Atomic type no.    1
  --------------------
  Nuclear charge:   7.00000
  Number of symmetry independent centers:    1
  Number of basis sets to read;    2
  The basis set is "6-311G**" from the basis set library.
  Basis set file used for this atomic type with Z =   7 :
     "/zhome/9a/4/124800/source/dalton/build-mlcc/basis/6-311G**"

  Info about the basis set file: your basis has no documentation.
  Basis set: 6-311G**                                                                        

  Atomic type no.    2
  --------------------
  Nuclear charge:   1.00000
  Number of symmetry independent centers:    3
  Number of basis sets to read;    2
  The basis set is "6-311G**" from the basis set library.
  Basis set file used for this atomic type with Z =   1 :
     "/zhome/9a/4/124800/source/dalton/build-mlcc/basis/6-311G**"

  Info about the basis set file: your basis has no documentation.
  Basis set: 6-311G**                                                                        

  Atomic type no.    3
  --------------------
  Nuclear charge:   8.00000
  Number of symmetry independent centers:    4
  Number of basis sets to read;    2
  The basis set is "6-311G**" from the basis set library.
  Basis set file used for this atomic type with Z =   8 :
     "/zhome/9a/4/124800/source/dalton/build-mlcc/basis/6-311G**"

  Info about the basis set file: your basis has no documentation.
  Basis set: 6-311G**                                                                        

  Atomic type no.    4
  --------------------
  Nuclear charge:   1.00000
  Number of symmetry independent centers:    8
  Number of basis sets to read;    2
  The basis set is "6-311G**" from the basis set library.
  Basis set file used for this atomic type with Z =   1 :
     "/zhome/9a/4/124800/source/dalton/build-mlcc/basis/6-311G**"

  Info about the basis set file: your basis has no documentation.
  Basis set: 6-311G**                                                                        


                         SYMGRP: Point group information
                         -------------------------------

@    Point group: C1 


                                 Isotopic Masses
                                 ---------------

                           N          14.003074
                           H           1.007825
                           H           1.007825
                           H           1.007825
                           O          15.994915
                           O          15.994915
                           O          15.994915
                           O          15.994915
                           H           1.007825
                           H           1.007825
                           H           1.007825
                           H           1.007825
                           H           1.007825
                           H           1.007825
                           H           1.007825
                           H           1.007825

                       Total mass:    89.068809 amu
                       Natural abundance:  98.514 %

 Center-of-mass coordinates (a.u.):   -0.494492   -0.382731    0.994705


  Atoms and basis sets
  --------------------

  Number of atom types :    4
  Total number of atoms:   16

  label    atoms   charge   prim   cont     basis
  ----------------------------------------------------------------------
  N           1    7.0000    31    18      [11s5p1d|4s3p1d]                                   
  H           3    1.0000     8     6      [5s1p|3s1p]                                        
  O           4    8.0000    31    18      [11s5p1d|4s3p1d]                                   
  H           8    1.0000     8     6      [5s1p|3s1p]                                        
  ----------------------------------------------------------------------
  total:     16   50.0000   243   156
  ----------------------------------------------------------------------
  Spherical harmonic basis used.

  Threshold for neglecting AO integrals:  1.00D-12


  Cartesian Coordinates (a.u.)
  ----------------------------

  Total number of coordinates:   48
  N       :     1  x   0.0000000000    2  y   0.0000000000    3  z   0.0000000000
  H       :     4  x  -0.2629100369    5  y   0.5663849347    6  z   1.8114139846
  H       :     7  x  -1.5617017950    8  y  -1.0143690791    9  z  -0.3776277510
  H       :    10  x   1.5434338126   11  y  -1.2329234644   12  z   0.0296630310
  O       :    13  x  -6.3853222154   14  y  -0.6724836080   15  z   1.1679754672
  O       :    16  x   4.6157675541   17  y  -4.5661754714   18  z   0.7458541145
  O       :    19  x  -1.1855140153   20  y   3.3837379302   21  z  -3.7765061670
  O       :    22  x   0.4633891917   23  y  -0.0333876812   24  z   6.7886218958
  H       :    25  x  -8.2696002600   26  y  -0.4335598649   27  z   1.4348085755
  H       :    28  x  -6.2765306824   29  y   0.1724072733   30  z  -0.5565715870
  H       :    31  x   4.7406066414   32  y  -3.2731511574   33  z   2.0834778549
  H       :    34  x   6.2545626162   35  y  -5.4310313093   36  z   0.6170428230
  H       :    37  x  -0.1529978963   38  y   2.9796332265   39  z  -5.3349047207
  H       :    40  x  -0.3667674950   41  y   2.2179337584   42  z  -2.2930749383
  H       :    43  x  -1.2262791873   44  y   0.1274506888   45  z   6.0775765365
  H       :    46  x   1.4211156200   47  y   1.4653200935   48  z   6.2391878044


   Interatomic separations (in Angstrom):
   --------------------------------------

            N           H           H           H           O           O     
            ------      ------      ------      ------      ------      ------
 N     :    0.000000
 H     :    1.013914    0.000000
 H     :    1.005501    1.585550    0.000000
 H     :    1.045466    1.645990    1.661273    0.000000
 O     :    3.453413    3.322994    2.686485    4.249099    0.000000
 O     :    3.458389    3.789444    3.817370    2.428614    6.179444    0.000000
 O     :    2.755643    3.347376    2.948103    3.480025    4.361744    5.731449
 O     :    3.600787    2.680576    3.974767    3.677264    4.700600    4.561479
 H     :    4.447385    4.274521    3.689780    5.262828    1.014971    7.170027
 H     :    3.335678    3.426446    2.574547    4.215868    1.017857    6.323449
 H     :    3.241734    3.340581    3.774567    2.282380    6.065671    0.986704
 H     :    4.395561    4.729346    4.779916    3.353659    7.152980    0.982934
 H     :    3.234603    3.991895    3.450264    3.719408    5.143300    5.715505
 H     :    1.699305    2.341884    2.086367    2.422245    3.979623    4.735615
 H     :    3.281622    2.326026    3.473512    3.592922    3.792388    4.866903
 H     :    3.473846    2.551557    4.058769    3.583342    5.054345    4.636313

            O           O           H           H           H           H     
            ------      ------      ------      ------      ------      ------
 O     :    0.000000
 O     :    5.940413    0.000000
 H     :    5.073312    5.424739    0.000000
 H     :    3.612350    5.276423    1.525015    0.000000
 H     :    5.644426    3.776451    7.055136    6.266206    0.000000
 H     :    6.531817    5.311860    8.139612    7.290445    1.596234    0.000000
 H     :    1.012098    6.618696    5.877397    4.370460    5.750213    6.420771
 H     :    1.088359    4.970741    4.832124    3.434557    4.594755    5.570642
 H     :    5.491932    0.973806    4.473923    4.412176    4.204234    5.716024
 H     :    5.569926    0.985072    5.811266    5.476606    3.769512    5.358305

            H           H           H           H     
            ------      ------      ------      ------
 H     :    0.000000
 H     :    1.663218    0.000000
 H     :    6.250826    4.588204    0.000000
 H     :    6.232858    4.630299    1.571996    0.000000


  Max    interatomic separation is    8.1396 Angstrom (   15.3816 Bohr)
  between atoms   12 and    9, "H     " and "H     ".

  Min HX interatomic separation is    0.9738 Angstrom (    1.8402 Bohr)

  Min YX interatomic separation is    2.7556 Angstrom (    5.2074 Bohr)


  Bond distances (Angstrom):
  --------------------------

                  atom 1     atom 2       distance
                  ------     ------       --------
  bond distance:  H          N            1.013914
  bond distance:  H          N            1.005501
  bond distance:  H          N            1.045466
  bond distance:  H          O            1.014971
  bond distance:  H          O            1.017857
  bond distance:  H          O            0.986704
  bond distance:  H          O            0.982934
  bond distance:  H          O            1.012098
  bond distance:  H          O            1.088359
  bond distance:  H          O            0.973806
  bond distance:  H          O            0.985072


  Bond angles (degrees):
  ----------------------

                  atom 1     atom 2     atom 3         angle
                  ------     ------     ------         -----
  bond angle:     H          N          H            103.469
  bond angle:     H          N          H            106.110
  bond angle:     H          N          H            108.175
  bond angle:     H          O          H             97.214
  bond angle:     H          O          H            108.274
  bond angle:     H          O          H            104.657
  bond angle:     H          O          H            106.737




 Principal moments of inertia (u*A**2) and principal axes
 --------------------------------------------------------

   IA     362.272669          0.762791   -0.462052    0.452390
   IB     505.235576         -0.525459   -0.035152    0.850093
   IC     687.117701          0.376885    0.886156    0.269603


 Rotational constants
 --------------------

               A                   B                   C

           1395.0238           1000.2839            735.5057 MHz
            0.046533            0.033366            0.024534 cm-1


@  Nuclear repulsion energy :  173.505583032161 Hartree


                     .---------------------------------------.
                     | Starting in Integral Section (HERMIT) |
                     `---------------------------------------'



 ***************************************************************************************
 ****************** Output from **INTEGRALS input processing (HERMIT) ******************
 ***************************************************************************************



    *************************************************************************
    ****************** Output from HERMIT input processing ******************
    *************************************************************************


 Default print level:        1

 * Nuclear model: Point charge

 Calculation of one- and two-electron Hamiltonian integrals.

 The following one-electron property integrals are calculated as requested:
          - overlap integrals
          - dipole length integrals

 Center of mass  (bohr):     -0.494491840486     -0.382731249855      0.994705263875
 Operator center (bohr):      0.000000000000      0.000000000000      0.000000000000
 Gauge origin    (bohr):      0.000000000000      0.000000000000      0.000000000000
 Dipole origin   (bohr):      0.000000000000      0.000000000000      0.000000000000
 
  *********************************** 
  QMMM electrostatic potential: 
  Multipole order                                    0
  Isotropic polarization  
  *********************************** 
 
  ---------------- 
  QMMM information 
  ---------------- 
 
  MM coordinates in au 
  -------------------- 
     1      9.931095      7.579361    -10.034083
     2     10.477025      6.635713    -11.684063
     3      8.447021      8.657561    -10.388630
     4     -8.089073     -8.949308      4.392566
     5     -7.070904    -10.693337      4.623253
     6     -7.989868     -7.987275      5.987886
     7     -8.069871     -6.253822      8.591944
     8     -7.690112     -7.255915     10.089709
     9     -9.803234     -5.477902      8.722220
    10    -11.097362      6.583339      8.521423
    11     -9.275700      6.929928      9.025990
    12    -10.903525      4.938814      7.714660
    13     -1.115135     -3.244274     -6.172331
    14     -1.366986     -3.205047     -8.105935
    15     -2.017054     -4.845322     -5.649416
    16      9.483897      4.701589     -5.733643
    17      8.605909      5.802812     -4.378641
    18      9.672363      5.838674     -7.263722
    19     -0.902359     -8.744192     10.981078
    20     -2.628683     -8.340159     11.648423
    21     -1.485599     -9.447586      9.406288
    22      8.715801     -7.782784     11.365625
    23     10.166105     -8.582966     12.135103
    24      7.468976     -7.449975     12.701403
    25     -8.881267      3.822770     -5.426082
    26    -10.345200      4.678535     -4.850630
    27     -9.302330      3.082963     -7.162170
    28     -6.920721     -3.761831     -7.570358
    29     -5.548398     -2.975727     -6.475436
    30     -8.085452     -4.316590     -6.110514
    31     -3.430970     -7.677490     -4.216960
    32     -1.797130     -8.644911     -4.128717
    33     -3.964970     -7.332173     -2.512406
    34     -5.691619      3.345042      9.870546
    35     -4.810443      4.840303     10.488415
    36     -5.241860      3.004910      8.096896
    37     10.903586     -0.290043     -2.660090
    38     11.682514      1.119600     -3.496651
    39      9.100687     -0.065970     -2.595197
    40    -11.455367     10.127821     -0.785497
    41    -12.471845     11.200138      0.425151
    42    -11.554356     11.185741     -2.428610
    43      6.861597      6.569287      3.960756
    44      7.598933      6.795682      2.258931
    45      7.752429      4.959626      4.740771
    46     -0.254724     -1.656848    -11.222910
    47      0.635953     -2.506986    -12.597931
    48     -1.630091     -0.454130    -11.795653
    49     -6.650018      9.891161      9.542994
    50     -5.527473      9.484813     10.865254
    51     -7.897421     11.113827     10.249635
    52     -7.977161      6.111183     -0.176034
    53     -9.118520      7.550703     -0.430861
    54     -6.719271      6.506841      1.107474
    55     10.814200     -4.163919      8.725965
    56     10.106333     -2.590380      9.209909
    57     10.222082     -5.539167      9.947530
    58     -1.392993     -9.821542      6.093681
    59      0.221839    -10.699505      5.624312
    60     -1.398703     -8.025249      5.407710
    61      8.757403     10.659662      7.102483
    62      7.832165      9.393744      5.924499
    63      9.903327      9.355201      7.901442
    64      1.394410      6.094992     10.989164
    65      2.683742      7.380870     11.469802
    66      1.664573      4.824456     12.318648
    67      6.474500     -7.811984     -7.365614
    68      5.781417     -6.338457     -6.242671
    69      7.516070     -8.929013     -6.278759
    70      5.206674     11.422028     -0.687962
    71      4.250928     11.968743     -2.300847
    72      4.023673     11.254746      0.774302
    73      1.589721     -5.079935      8.847558
    74      0.342033     -6.194324      9.631554
    75      0.921580     -4.464820      7.241610
    76     -3.741644      7.581237    -10.600354
    77     -4.157012      7.496483     -8.617363
    78     -1.908332      7.419533    -10.686677
    79     -5.525444      0.056941     -3.983701
    80     -6.708435      1.394690     -4.475096
    81     -3.938259      1.064589     -3.942023
    82      5.507972      9.848899    -11.680609
    83      4.694127     11.178569    -10.549502
    84      6.047868     10.663337    -13.315044
    85      4.703268     -0.096042      3.885130
    86      5.935033      0.387245      5.077086
    87      3.207215     -0.594859      4.809221
    88      1.699399      2.721820     -8.369465
    89      1.316918      1.126696     -9.182567
    90      3.323902      2.383525     -7.532235
    91     -7.085541    -10.849350     -6.515910
    92     -5.593899    -10.068215     -5.622162
    93     -6.737310    -12.734670     -6.578135
    94      7.810588      7.333137     -1.047252
    95      6.571232      8.778870     -0.826640
    96      9.512944      8.275228     -0.993308
    97      4.185554     -3.806706     -4.569190
    98      2.296503     -3.270987     -5.205657
    99      4.256338     -3.866623     -2.759594
   100      1.824064    -10.636386     -8.659194
   101      0.788828    -10.071227    -10.046275
   102      3.105353     -9.328996     -8.257595
   103     -4.875286     -2.151100      7.858982
   104     -6.255360     -3.324444      8.266085
   105     -5.737840     -0.533273      7.762664
   106     -8.551066      0.729459     -9.771855
   107     -7.357019      1.433036    -11.135107
   108     -7.842360     -0.880055     -9.144910
   109      0.132286     -6.847544      0.242027
   110      1.936312     -6.306645      0.643843
   111      0.561882     -8.120705     -0.950925
   112     -5.561957     -7.864817    -10.652679
   113     -5.838413     -6.199477     -9.741141
   114     -6.028737     -9.095942     -9.241800
   115     -5.432957      7.681045     -5.755658
   116     -6.619588      6.297503     -5.426700
   117     -4.296820      7.868684     -4.255971
   118      8.766358     -7.084440     -0.005664
   119      9.993008     -5.810471     -0.601449
   120      9.579844     -8.147036      1.274736
   121      0.425230    -10.834951     -3.849812
   122     -0.076349    -12.486025     -3.161922
   123      0.695663    -11.045748     -5.741489
   124     10.193999     -9.342366     -4.579914
   125      9.334652     -9.096346     -2.856729
   126     11.008618     -7.748529     -4.592343
   127     -1.619318      8.150145     -2.293638
   128     -0.985634      6.455427     -2.852285
   129     -2.092556      7.810074     -0.494730
   130      1.860675      5.608771      5.435261
   131      1.685415      5.917961      7.279063
   132      3.604832      5.342156      4.703294
   133     11.115760    -10.712377      3.054047
   134     12.681504     -9.945481      3.618914
   135     10.055648    -11.180423      4.545118
   136     -2.545159      6.716238      2.596667
   137     -0.755395      6.280826      3.426349
   138     -3.236702      8.225341      3.542840
   139      6.732711      0.696886     -7.025202
   140      6.506612     -0.801554     -6.040929
   141      8.041465      1.801499     -6.225521
   142    -10.996503      2.043556      1.842332
   143    -10.329109      3.723014      1.241289
   144    -12.285531      1.629877      0.563565
   145      6.812251      2.050198     -0.611134
   146      6.805886      3.940139     -0.566667
   147      5.954873      1.343593      0.803468
   148    -10.608834    -11.408004    -10.821830
   149    -10.346912    -11.334318     -9.021520
   150    -11.717458    -12.901672    -10.695958
   151     -6.712233     -6.048628      0.143391
   152     -6.434952     -4.237650      0.604907
   153     -6.969520     -7.210874      1.580002
   154      9.819542      0.383955     11.291841
   155     11.448773      0.470657     12.250805
   156      8.589826      0.478902     12.560405
   157      8.709644      2.349183      6.371162
   158     10.077203      1.999381      5.248869
   159      9.366048      2.389389      8.111304
   160     -1.880497     -4.821931      4.566123
   161     -3.387933     -3.881101      5.015872
   162     -1.874901     -5.395858      2.731667
   163     -4.676492     10.579392      4.970892
   164     -5.102149     10.242200      6.874593
   165     -3.439504     11.995494      4.963579
   166     -4.556220      2.566522      4.803844
   167     -3.992923      4.088300      3.854008
   168     -5.228396      1.279307      3.721077
   169      2.810943     11.113772      4.800963
   170      3.850464     12.250097      5.890747
   171      2.640365      9.365513      5.591237
   172      4.614603     -8.624651      7.324321
   173      3.886687     -7.149660      8.183712
   174      6.406805     -8.738388      7.863555
   175    -10.300349     -4.859782     -3.369089
   176     -9.008583     -5.461363     -2.006184
   177    -10.973755     -3.067651     -3.076571
 
  MM charges 
  ---------- 
     1     -0.674440
     2      0.337220
     3      0.337220
     4     -0.674440
     5      0.337220
     6      0.337220
     7     -0.674440
     8      0.337220
     9      0.337220
    10     -0.674440
    11      0.337220
    12      0.337220
    13     -0.674440
    14      0.337220
    15      0.337220
    16     -0.674440
    17      0.337220
    18      0.337220
    19     -0.674440
    20      0.337220
    21      0.337220
    22     -0.674440
    23      0.337220
    24      0.337220
    25     -0.674440
    26      0.337220
    27      0.337220
    28     -0.674440
    29      0.337220
    30      0.337220
    31     -0.674440
    32      0.337220
    33      0.337220
    34     -0.674440
    35      0.337220
    36      0.337220
    37     -0.674440
    38      0.337220
    39      0.337220
    40     -0.674440
    41      0.337220
    42      0.337220
    43     -0.674440
    44      0.337220
    45      0.337220
    46     -0.674440
    47      0.337220
    48      0.337220
    49     -0.674440
    50      0.337220
    51      0.337220
    52     -0.674440
    53      0.337220
    54      0.337220
    55     -0.674440
    56      0.337220
    57      0.337220
    58     -0.674440
    59      0.337220
    60      0.337220
    61     -0.674440
    62      0.337220
    63      0.337220
    64     -0.674440
    65      0.337220
    66      0.337220
    67     -0.674440
    68      0.337220
    69      0.337220
    70     -0.674440
    71      0.337220
    72      0.337220
    73     -0.674440
    74      0.337220
    75      0.337220
    76     -0.674440
    77      0.337220
    78      0.337220
    79     -0.674440
    80      0.337220
    81      0.337220
    82     -0.674440
    83      0.337220
    84      0.337220
    85     -0.674440
    86      0.337220
    87      0.337220
    88     -0.674440
    89      0.337220
    90      0.337220
    91     -0.674440
    92      0.337220
    93      0.337220
    94     -0.674440
    95      0.337220
    96      0.337220
    97     -0.674440
    98      0.337220
    99      0.337220
   100     -0.674440
   101      0.337220
   102      0.337220
   103     -0.674440
   104      0.337220
   105      0.337220
   106     -0.674440
   107      0.337220
   108      0.337220
   109     -0.674440
   110      0.337220
   111      0.337220
   112     -0.674440
   113      0.337220
   114      0.337220
   115     -0.674440
   116      0.337220
   117      0.337220
   118     -0.674440
   119      0.337220
   120      0.337220
   121     -0.674440
   122      0.337220
   123      0.337220
   124     -0.674440
   125      0.337220
   126      0.337220
   127     -0.674440
   128      0.337220
   129      0.337220
   130     -0.674440
   131      0.337220
   132      0.337220
   133     -0.674440
   134      0.337220
   135      0.337220
   136     -0.674440
   137      0.337220
   138      0.337220
   139     -0.674440
   140      0.337220
   141      0.337220
   142     -0.674440
   143      0.337220
   144      0.337220
   145     -0.674440
   146      0.337220
   147      0.337220
   148     -0.674440
   149      0.337220
   150      0.337220
   151     -0.674440
   152      0.337220
   153      0.337220
   154     -0.674440
   155      0.337220
   156      0.337220
   157     -0.674440
   158      0.337220
   159      0.337220
   160     -0.674440
   161      0.337220
   162      0.337220
   163     -0.674440
   164      0.337220
   165      0.337220
   166     -0.674440
   167      0.337220
   168      0.337220
   169     -0.674440
   170      0.337220
   171      0.337220
   172     -0.674440
   173      0.337220
   174      0.337220
   175     -0.674440
   176      0.337220
   177      0.337220
 
  MM isotropic polarizabilities in au 
  ----------------------------------- 
     1      5.739350
     2      2.308390
     3      2.308390
     4      5.739350
     5      2.308390
     6      2.308390
     7      5.739350
     8      2.308390
     9      2.308390
    10      5.739350
    11      2.308390
    12      2.308390
    13      5.739350
    14      2.308390
    15      2.308390
    16      5.739350
    17      2.308390
    18      2.308390
    19      5.739350
    20      2.308390
    21      2.308390
    22      5.739350
    23      2.308390
    24      2.308390
    25      5.739350
    26      2.308390
    27      2.308390
    28      5.739350
    29      2.308390
    30      2.308390
    31      5.739350
    32      2.308390
    33      2.308390
    34      5.739350
    35      2.308390
    36      2.308390
    37      5.739350
    38      2.308390
    39      2.308390
    40      5.739350
    41      2.308390
    42      2.308390
    43      5.739350
    44      2.308390
    45      2.308390
    46      5.739350
    47      2.308390
    48      2.308390
    49      5.739350
    50      2.308390
    51      2.308390
    52      5.739350
    53      2.308390
    54      2.308390
    55      5.739350
    56      2.308390
    57      2.308390
    58      5.739350
    59      2.308390
    60      2.308390
    61      5.739350
    62      2.308390
    63      2.308390
    64      5.739350
    65      2.308390
    66      2.308390
    67      5.739350
    68      2.308390
    69      2.308390
    70      5.739350
    71      2.308390
    72      2.308390
    73      5.739350
    74      2.308390
    75      2.308390
    76      5.739350
    77      2.308390
    78      2.308390
    79      5.739350
    80      2.308390
    81      2.308390
    82      5.739350
    83      2.308390
    84      2.308390
    85      5.739350
    86      2.308390
    87      2.308390
    88      5.739350
    89      2.308390
    90      2.308390
    91      5.739350
    92      2.308390
    93      2.308390
    94      5.739350
    95      2.308390
    96      2.308390
    97      5.739350
    98      2.308390
    99      2.308390
   100      5.739350
   101      2.308390
   102      2.308390
   103      5.739350
   104      2.308390
   105      2.308390
   106      5.739350
   107      2.308390
   108      2.308390
   109      5.739350
   110      2.308390
   111      2.308390
   112      5.739350
   113      2.308390
   114      2.308390
   115      5.739350
   116      2.308390
   117      2.308390
   118      5.739350
   119      2.308390
   120      2.308390
   121      5.739350
   122      2.308390
   123      2.308390
   124      5.739350
   125      2.308390
   126      2.308390
   127      5.739350
   128      2.308390
   129      2.308390
   130      5.739350
   131      2.308390
   132      2.308390
   133      5.739350
   134      2.308390
   135      2.308390
   136      5.739350
   137      2.308390
   138      2.308390
   139      5.739350
   140      2.308390
   141      2.308390
   142      5.739350
   143      2.308390
   144      2.308390
   145      5.739350
   146      2.308390
   147      2.308390
   148      5.739350
   149      2.308390
   150      2.308390
   151      5.739350
   152      2.308390
   153      2.308390
   154      5.739350
   155      2.308390
   156      2.308390
   157      5.739350
   158      2.308390
   159      2.308390
   160      5.739350
   161      2.308390
   162      2.308390
   163      5.739350
   164      2.308390
   165      2.308390
   166      5.739350
   167      2.308390
   168      2.308390
   169      5.739350
   170      2.308390
   171      2.308390
   172      5.739350
   173      2.308390
   174      2.308390
   175      5.739350
   176      2.308390
   177      2.308390


     ************************************************************************
     ************************** Output from HERINT **************************
     ************************************************************************



                      Nuclear contribution to dipole moments
                      --------------------------------------

                 au               Debye          C m (/(10**-30)

      x    -24.09050454       -61.23195097      -204.24780322
      y    -18.96237554       -48.19754802      -160.76971497
      z     49.13855410       124.89773844       416.61401116


  Time used in HUCKEL     is       0.14 seconds
  Time used in OVERLAP    is       0.13 seconds
  Time used in POPOVLP    is       0.21 seconds
  Time used in DIPLEN     is       0.19 seconds
  Time used in QUADRUP    is       0.68 seconds
  Time used in KINENE     is       0.24 seconds

 Threshold for neglecting two-electron integrals:  1.00D-12
 HERMIT - Number of two-electron integrals written:    24707850 ( 32.9% )
 HERMIT - Megabytes written:                            282.918

  Time used in TWOINT     is      13.19 seconds
  Total CPU  time used in HERMIT:  14.86 seconds
  Total wall time used in HERMIT:   5.33 seconds


                        .----------------------------------.
                        | End of Integral Section (HERMIT) |
                        `----------------------------------'



                   .--------------------------------------------.
                   | Starting in Wave Function Section (SIRIUS) |
                   `--------------------------------------------'

NCCEXCI for singlet:   15
 CCSD_INPUT: core-val requested
 Requested number of core orbs per sym
                     1
 Indices of requested core orbs
                     1

 *** Output from Huckel module :

     Using EWMO model:          T
     Using EHT  model:          F
     Number of Huckel orbitals each symmetry:   36

 EWMO - Energy Weighted Maximum Overlap - is a Huckel type method,
        which normally is better than Extended Huckel Theory.
 Reference: Linderberg and Ohrn, Propagators in Quantum Chemistry (Wiley, 1973)

 Huckel EWMO eigenvalues for symmetry :  1
          -20.684636     -20.684548     -20.684125     -20.683756     -15.673928
           -1.690944      -1.594682      -1.592147      -1.573901      -1.455906
           -0.823980      -0.788758      -0.777714      -0.769660      -0.733945
           -0.706618      -0.697526      -0.688249      -0.676254      -0.662683
           -0.616308      -0.615051      -0.611592      -0.608585      -0.516841
           -0.258736      -0.245489      -0.238443      -0.235547      -0.188891
           -0.187424      -0.176200      -0.174745      -0.163002      -0.148756
           -0.146229

 **********************************************************************
 *SIRIUS* a direct, restricted step, second order MCSCF program       *
 **********************************************************************

 
     Date and time (Linux)  : Fri Dec 28 12:51:07 2018
     Host name              : n-62-23-24                              

 Title lines from ".mol" input file:
                                                                             
                                                                             

 Print level on unit LUPRI =   2 is   0
 Print level on unit LUW4  =   2 is  11

@    (Integral direct) CC calculation.

@    This is a combination run starting with
@              a restricted, closed shell Hartree-Fock calculation


 Initial molecular orbitals are obtained according to
 ".MOSTART EWMO  " input option

@    QM part is embedded in an environment :

@         Model: QMMM

     Wave function specification
     ============================

     For the specification of the Coupled Cluster: see later.

@    Wave function type        --- CC ---
@    Number of closed shell electrons          50
@    Number of electrons in active shells       0
@    Total charge of the molecule               0

@    Spin multiplicity and 2 M_S                1         0
@    Total number of symmetries                 1 (point group: C1 )
@    Reference state symmetry                   1 (irrep name : A  )

     Orbital specifications
     ======================
@    Abelian symmetry species          All |    1
@                                          |  A  
                                       --- |  ---
@    Occupied SCF orbitals              25 |   25
@    Secondary orbitals                131 |  131
@    Total number of orbitals          156 |  156
@    Number of basis functions         156 |  156

     Optimization information
     ========================
@    Number of configurations                 1
@    Number of orbital rotations           3275
     ------------------------------------------
@    Total number of variables             3276

     Maximum number of Fock   iterations      0
     Maximum number of DIIS   iterations     60
     Maximum number of QC-SCF iterations     60
     Threshold for SCF convergence     1.00D-07


 Changes of defaults for CC:
 ---------------------------


 -Implicit frozen core calculation
 -Excitation energies calculated
 -One-photon absorption strengths will be calculated
 -Oscillator strengths calculated
  
* Read MO coefficients from SIRIUS.RST with label "NEWORB  " and header info: 28Dec18  REORTHO 


 ***********************************************
 ***** DIIS acceleration of SCF iterations *****
 ***********************************************

 C1-DIIS algorithm; max error vectors =    8
 -----------------------------------------------------------------------------

 *** DIIS iteration number    1
 RDSUPM called. NFMAT, ISYMDM(1:NFMAT)                     1
                     1

Calculating AOSUPINT
     (Precalculated two-electron integrals are transformed to P-supermatrix elements.
      Threshold for discarding integrals :  1.00D-12 )
  CPU  time used in FORMSUP    is   6.66 seconds
  WALL time used in FORMSUP    is   8.21 seconds

 ITDIIS, energy, error norm, change in energy, scr.thr., difden:
@ DIIS iter.   1    -359.890184169        3.81578D+00   -3.60D+02  -20    F

 (DIIS_RED) Control Parameters C2DIIS =         F NEVC =    1


 (DIIS_RED) B matrix:

               Column   1
       1      14.56018094
    ==== End of matrix output ====

 DIIS C vector; C2DIIS = F, LAMBDA = -1.46D+01
    1.000000
* Read MO coefficients from SIRIUS.RST with label "NEWORB  " and header info: 28Dec18  DIIS   1
      Virial theorem: -V/T =      1.998308
@      MULPOP N      -0.31; H       0.17; H       0.18; H       0.16; O      -0.64; O      -0.63; O      -0.87; O      -0.65; H       0.32; H       0.33; 
@             H       0.33; H       0.31; H       0.32; H       0.31; H       0.33; H       0.33; 
   1  Level shift: doubly occupied orbital energies shifted by -2.00D-01

 DIIS Fock eigenvalues in symmetry 1
      -20.72417      -20.71183      -20.70970      -20.45682      -16.03823
       -1.55045       -1.54479       -1.53225       -1.46720       -1.38552
       -0.96390       -0.96074       -0.93967       -0.92643       -0.89294
       -0.84433       -0.79996       -0.79416       -0.78134       -0.75411
       -0.75118       -0.74602       -0.72368       -0.64260       -0.61062
        0.08997        0.14883        0.15605        0.19657        0.22607
        0.24993        0.26187        0.27498        0.27941        0.28889
        0.37662        0.40940        0.45489        0.50791        0.52023
        0.55685        0.56219        0.58310        0.58762        0.59117
        0.61833        0.65387        0.81536        0.85780        0.87111
        0.94389        0.94858        0.96926        1.00345        1.02995
        1.03569        1.06461        1.08175        1.09024        1.11308
        1.13776        1.20167        1.24366        1.25055        1.27503
        1.30561        1.31782        1.33803        1.36926        1.43407
        1.47058        1.48717        1.48876        1.49997        1.52486
        1.57670        1.62017        1.63984        1.67780        1.69178
        1.70306        1.74128        1.75422        1.81255        1.82143
        1.83252        1.88307        1.91300        1.97487        2.05531
        2.09241        2.12420        2.17586        2.21841        2.29012
        2.29140        2.30610        2.31067        2.40963        2.44315
        2.54013        2.55640        2.56955        2.61879        2.65400
        2.70529        2.71322        2.76463        2.79764        2.81534
        2.83377        2.85468        2.89861        3.01801        3.27588
        3.32689        3.40228        3.42505        3.43237        3.43364
        3.49088        3.49525        3.51761        3.58923        3.60043
        3.61722        3.64542        3.71085        3.91269        3.97653
        3.98820        4.03098        4.18786        4.18932        4.21068
        4.24606        4.47627        4.96883        5.00922        5.30267
        5.31494        5.35303        5.49748        5.70430        5.70997
        5.73614        5.82266        5.95740        6.10796        6.11206
        6.17205       36.73539       51.52777       51.54629       51.56278
       51.79840
 Time used in FCKEIG, thr_jaco:   4.21D-01  4.20D-02  1.67D-04
 CPU and wall times used in FCKEIG, THR_FCKEIG:   4.22D-01  4.20D-02  3.82D-02
 -----------------------------------------------------------------------------

 *** DIIS iteration number    2
 RDSUPM called. NFMAT, ISYMDM(1:NFMAT)                     1
                     1

 ITDIIS, energy, error norm, change in energy, scr.thr., difden:
@ DIIS iter.   2    -360.684460115        9.89469D-01   -7.94D-01  -20    F

 (DIIS_RED) Control Parameters C2DIIS =         F NEVC =    2


 (DIIS_RED) B matrix:

               Column   1     Column   2
       1      14.56018094
       2       0.64462127     0.97904812
    ==== End of matrix output ====

 DIIS C vector; C2DIIS = F, LAMBDA = -9.71D-01
    0.023469    0.976531
* Read MO coefficients from SIRIUS.RST with label "NEWORB  " and header info: 28Dec18  DIIS   2
      Virial theorem: -V/T =      2.004950
@      MULPOP N      -0.65; H       0.20; H       0.26; H       0.24; O      -0.59; O      -0.61; O      -0.69; O      -0.51; H       0.29; H       0.31; 
@             H       0.29; H       0.33; H       0.27; H       0.32; H       0.29; H       0.25; 
   2  Level shift: doubly occupied orbital energies shifted by -1.00D-01

 DIIS Fock eigenvalues in symmetry 1
      -20.71363      -20.68960      -20.68317      -20.66405      -15.52443
       -1.44460       -1.43139       -1.43072       -1.38681       -1.20677
       -0.81568       -0.79999       -0.77375       -0.74721       -0.70526
       -0.70294       -0.69571       -0.68532       -0.68093       -0.65856
       -0.63762       -0.62925       -0.62376       -0.60267       -0.50717
        0.14122        0.17787        0.19545        0.22982        0.24919
        0.28080        0.29102        0.29728        0.31225        0.34060
        0.39984        0.47730        0.52183        0.55121        0.55804
        0.58656        0.60070        0.62066        0.62368        0.62716
        0.65300        0.70533        0.92915        0.94169        0.96393
        0.96827        0.98249        0.98772        1.00669        1.01402
        1.04261        1.07036        1.10783        1.11259        1.12499
        1.15159        1.18465        1.31104        1.31412        1.33273
        1.35294        1.36449        1.39897        1.41165        1.49190
        1.50439        1.52997        1.53933        1.54785        1.57295
        1.59823        1.64747        1.67495        1.73597        1.74624
        1.77382        1.81257        1.84377        1.87788        1.88394
        1.89559        1.94924        2.00273        2.04422        2.16818
        2.18848        2.20918        2.22896        2.27089        2.29870
        2.34597        2.36600        2.37409        2.47616        2.55197
        2.60319        2.62118        2.63572        2.68834        2.73341
        2.77664        2.78229        2.82519        2.88320        2.89875
        2.96068        3.00473        3.05103        3.16972        3.41947
        3.43035        3.44066        3.44469        3.44624        3.48291
        3.48793        3.51146        3.52132        3.54137        3.61658
        3.61959        3.65138        3.66730        3.92354        3.96060
        3.99453        4.01993        4.17279        4.20268        4.22088
        4.22169        4.66590        5.22093        5.25594        5.28882
        5.31241        5.33287        5.34313        5.65062        5.69513
        5.71369        5.72415        5.95605        6.01466        6.11708
        6.13738       37.14170       51.44704       51.45200       51.49441
       51.50889
 Time used in FCKEIG, thr_jaco:   2.73D-01  2.70D-02  4.32D-05
 CPU and wall times used in FCKEIG, THR_FCKEIG:   2.73D-01  2.70D-02  9.89D-03
 -----------------------------------------------------------------------------

 *** DIIS iteration number    3
 RDSUPM called. NFMAT, ISYMDM(1:NFMAT)                     1
                     1

 ITDIIS, energy, error norm, change in energy, scr.thr., difden:
@ DIIS iter.   3    -360.746790021        3.80823D-01   -6.23D-02  -20    F

 (DIIS_RED) Control Parameters C2DIIS =         F NEVC =    3


 (DIIS_RED) B matrix:

               Column   1     Column   2     Column   3
       1      14.56018094
       2       0.64462127     0.97904812
       3       0.73233272     0.02253412     0.14502641
    ==== End of matrix output ====

 DIIS C vector; C2DIIS = F, LAMBDA = -1.05D-01
   -0.044659    0.114963    0.929696
* Read MO coefficients from SIRIUS.RST with label "NEWORB  " and header info: 28Dec18  DIIS   3
      Virial theorem: -V/T =      2.002324
@      MULPOP N      -0.55; H       0.17; H       0.22; H       0.21; O      -0.66; O      -0.66; O      -0.80; O      -0.55; H       0.32; H       0.35; 
@             H       0.32; H       0.36; H       0.34; H       0.37; H       0.31; H       0.26; 
   3  Level shift: doubly occupied orbital energies shifted by -5.00D-02

 DIIS Fock eigenvalues in symmetry 1
      -20.59912      -20.59452      -20.58982      -20.50417      -15.60938
       -1.37911       -1.37000       -1.36567       -1.28557       -1.19189
       -0.74851       -0.73815       -0.70741       -0.68028       -0.67244
       -0.65453       -0.63138       -0.62321       -0.61528       -0.56722
       -0.56273       -0.55541       -0.55413       -0.49347       -0.47234
        0.14621        0.18302        0.20014        0.23401        0.25489
        0.28477        0.29598        0.30120        0.31298        0.34046
        0.40538        0.47787        0.52454        0.56024        0.56817
        0.59612        0.60961        0.62940        0.63244        0.63738
        0.66328        0.70789        0.92768        0.94261        0.96148
        0.98124        0.99330        0.99771        1.02721        1.03653
        1.06231        1.07366        1.11967        1.12144        1.14115
        1.16112        1.20623        1.31957        1.32546        1.34535
        1.35056        1.36145        1.39793        1.42359        1.50885
        1.52054        1.54143        1.55171        1.55960        1.58350
        1.61469        1.66277        1.68625        1.74731        1.75687
        1.78588        1.81641        1.84331        1.88490        1.89636
        1.90410        1.95759        2.00638        2.04859        2.17295
        2.18690        2.20177        2.24503        2.28259        2.32180
        2.36083        2.38014        2.38996        2.49224        2.55392
        2.61382        2.63477        2.64562        2.69840        2.74002
        2.78513        2.79331        2.83475        2.89240        2.90729
        2.94501        2.97893        3.03395        3.15117        3.43845
        3.45661        3.46368        3.46778        3.46966        3.47537
        3.50557        3.53460        3.53913        3.55384        3.64044
        3.66955        3.68010        3.68957        3.94596        4.01045
        4.01960        4.03851        4.22720        4.22845        4.24063
        4.24711        4.61583        5.17010        5.20827        5.31643
        5.34729        5.36952        5.40792        5.72231        5.73315
        5.74172        5.75185        5.98511        6.10280        6.14596
        6.15829       37.01095       51.49138       51.53301       51.53360
       51.60607
 Time used in FCKEIG, thr_jaco:   2.47D-01  2.50D-02  1.66D-05
 CPU and wall times used in FCKEIG, THR_FCKEIG:   2.47D-01  2.50D-02  3.81D-03
 -----------------------------------------------------------------------------

 *** DIIS iteration number    4
 RDSUPM called. NFMAT, ISYMDM(1:NFMAT)                     1
                     1

 ITDIIS, energy, error norm, change in energy, scr.thr., difden:
@ DIIS iter.   4    -360.756616751        1.14030D-01   -9.83D-03  -20    F

 (DIIS_RED) Control Parameters C2DIIS =         F NEVC =    4


 (DIIS_RED) B matrix:

               Column   1     Column   2     Column   3     Column   4
       1      14.56018094
       2       0.64462127     0.97904812
       3       0.73233272     0.02253412     0.14502641
       4       0.01704323     0.09137830    -0.00464963     0.01300295
    ==== End of matrix output ====

 DIIS C vector; C2DIIS = F, LAMBDA = -4.42D-03
   -0.000969   -0.091006    0.081898    1.010077
* Read MO coefficients from SIRIUS.RST with label "NEWORB  " and header info: 28Dec18  DIIS   4
      Virial theorem: -V/T =      2.003296
@      MULPOP N      -0.62; H       0.18; H       0.24; H       0.23; O      -0.67; O      -0.68; O      -0.78; O      -0.55; H       0.32; H       0.35; 
@             H       0.32; H       0.37; H       0.34; H       0.37; H       0.32; H       0.26; 
   4  Level shift: doubly occupied orbital energies shifted by -2.50D-02

 DIIS Fock eigenvalues in symmetry 1
      -20.58204      -20.57612      -20.56903      -20.52138      -15.56027
       -1.35736       -1.34738       -1.34432       -1.27438       -1.15916
       -0.72566       -0.71511       -0.68443       -0.65314       -0.63986
       -0.63231       -0.60815       -0.59799       -0.59068       -0.55042
       -0.53701       -0.52944       -0.52720       -0.47870       -0.44228
        0.14634        0.18214        0.19989        0.23348        0.25451
        0.28432        0.29561        0.30161        0.31449        0.34289
        0.40590        0.48086        0.52755        0.56069        0.56828
        0.59521        0.60911        0.62723        0.63112        0.63602
        0.66137        0.70976        0.93169        0.94660        0.96562
        0.98266        0.99521        0.99865        1.02586        1.03288
        1.05921        1.07550        1.11994        1.12156        1.13927
        1.16118        1.20131        1.31909        1.32464        1.34354
        1.35503        1.36562        1.40117        1.42168        1.50658
        1.51787        1.54012        1.55055        1.55716        1.58234
        1.61231        1.65890        1.68385        1.74628        1.75542
        1.78538        1.81999        1.84622        1.88584        1.89507
        1.90295        1.95595        2.00940        2.05069        2.17546
        2.18775        2.20730        2.24343        2.28080        2.31503
        2.35765        2.37789        2.38772        2.49199        2.55822
        2.61143        2.63363        2.64462        2.69749        2.74262
        2.78639        2.79277        2.83282        2.89031        2.90758
        2.95259        2.98800        3.04121        3.15826        3.44315
        3.46201        3.46243        3.46571        3.46612        3.46803
        3.51141        3.53331        3.53853        3.54202        3.63866
        3.66697        3.66934        3.68860        3.94394        4.00123
        4.01652        4.03712        4.21752        4.22607        4.23977
        4.24477        4.62711        5.18294        5.22086        5.31293
        5.34636        5.36681        5.38506        5.71643        5.72162
        5.73425        5.74812        5.98075        6.08143        6.14258
        6.15599       37.03475       51.48370       51.52678       51.52946
       51.56461
 Time used in FCKEIG, thr_jaco:   2.33D-01  2.40D-02  4.98D-06
 CPU and wall times used in FCKEIG, THR_FCKEIG:   2.34D-01  2.40D-02  1.14D-03
 -----------------------------------------------------------------------------

 *** DIIS iteration number    5
 RDSUPM called. NFMAT, ISYMDM(1:NFMAT)                     1
                     1

 ITDIIS, energy, error norm, change in energy, scr.thr., difden:
@ DIIS iter.   5    -360.757864686        2.62642D-02   -1.25D-03  -20    F

 (DIIS_RED) Control Parameters C2DIIS =         F NEVC =    5


 (DIIS_RED) B matrix:

               Column   1     Column   2     Column   3     Column   4     Column   5
       1      14.56018094
       2       0.64462127     0.97904812
       3       0.73233272     0.02253412     0.14502641
       4       0.01704323     0.09137830    -0.00464963     0.01300295
       5       0.01553075     0.00692427     0.00544290     0.00111366     0.00068981
    ==== End of matrix output ====

 DIIS C vector; C2DIIS = F, LAMBDA = -4.43D-04
    0.001372    0.001135   -0.049684   -0.090989    1.138166
* Read MO coefficients from SIRIUS.RST with label "NEWORB  " and header info: 28Dec18  DIIS   5
      Virial theorem: -V/T =      2.002927
@      MULPOP N      -0.62; H       0.18; H       0.24; H       0.23; O      -0.68; O      -0.70; O      -0.80; O      -0.56; H       0.33; H       0.36; 
@             H       0.33; H       0.38; H       0.35; H       0.38; H       0.33; H       0.26; 

 DIIS Fock eigenvalues in symmetry 1
      -20.55656      -20.55097      -20.54366      -20.48858      -15.52859
       -1.33227       -1.32229       -1.31906       -1.24677       -1.13227
       -0.70091       -0.69059       -0.65944       -0.62675       -0.61337
       -0.60589       -0.58354       -0.57311       -0.56596       -0.52340
       -0.51083       -0.50348       -0.50119       -0.45034       -0.41511
        0.14635        0.18197        0.19975        0.23347        0.25450
        0.28436        0.29555        0.30162        0.31482        0.34323
        0.40633        0.48121        0.52810        0.56077        0.56836
        0.59524        0.60889        0.62687        0.63076        0.63587
        0.66156        0.71029        0.93306        0.94763        0.96656
        0.98321        0.99604        0.99893        1.02701        1.03401
        1.06027        1.07599        1.11999        1.12174        1.13994
        1.16132        1.20230        1.31918        1.32468        1.34363
        1.35588        1.36649        1.40197        1.42139        1.50663
        1.51843        1.53969        1.55023        1.55668        1.58190
        1.61268        1.65921        1.68344        1.74594        1.75491
        1.78560        1.82040        1.84688        1.88612        1.89466
        1.90236        1.95541        2.00998        2.05100        2.17555
        2.18819        2.20810        2.24299        2.28013        2.31536
        2.35722        2.37733        2.38728        2.49276        2.55891
        2.61078        2.63325        2.64407        2.69729        2.74280
        2.78628        2.79245        2.83193        2.88961        2.90720
        2.95388        2.98966        3.04274        3.15964        3.44383
        3.46254        3.46351        3.46635        3.46775        3.46893
        3.51375        3.53326        3.53848        3.54466        3.63873
        3.66859        3.67034        3.68864        3.94409        4.00366
        4.01669        4.03712        4.22020        4.22605        4.23985
        4.24505        4.63044        5.18593        5.22378        5.31344
        5.34687        5.36715        5.38969        5.71863        5.72336
        5.73465        5.74836        5.98081        6.08536        6.14243
        6.15586       37.04127       51.48417       51.52693       51.52982
       51.57229
 Time used in FCKEIG, thr_jaco:   2.25D-01  2.30D-02  1.15D-06
 CPU and wall times used in FCKEIG, THR_FCKEIG:   2.25D-01  2.30D-02  2.63D-04
 -----------------------------------------------------------------------------

 *** DIIS iteration number    6
 RDSUPM called. NFMAT, ISYMDM(1:NFMAT)                     1
                     1

 ITDIIS, energy, error norm, change in energy, scr.thr., difden:
@ DIIS iter.   6    -360.757963163        9.72323D-03   -9.85D-05  -20    F

 (DIIS_RED) Control Parameters C2DIIS =         F NEVC =    6


 (DIIS_RED) B matrix:

               Column   1     Column   2     Column   3     Column   4     Column   5     Column   6
       1      14.56018094
       2       0.64462127     0.97904812
       3       0.73233272     0.02253412     0.14502641
       4       0.01704323     0.09137830    -0.00464963     0.01300295
       5       0.01553075     0.00692427     0.00544290     0.00111366     0.00068981
       6      -0.00121187    -0.00033621     0.00076216     0.00032952     0.00006914     0.00009454
    ==== End of matrix output ====

 DIIS C vector; C2DIIS = F, LAMBDA = -4.50D-05
    0.000593    0.009343   -0.020189   -0.110948    0.204652    0.916549
* Read MO coefficients from SIRIUS.RST with label "NEWORB  " and header info: 28Dec18  DIIS   6
      Virial theorem: -V/T =      2.003061
@      MULPOP N      -0.61; H       0.18; H       0.24; H       0.23; O      -0.69; O      -0.70; O      -0.80; O      -0.57; H       0.33; H       0.36; 
@             H       0.33; H       0.38; H       0.36; H       0.38; H       0.33; H       0.26; 

 DIIS Fock eigenvalues in symmetry 1
      -20.55636      -20.55063      -20.54360      -20.49130      -15.53272
       -1.33209       -1.32220       -1.31890       -1.24755       -1.13359
       -0.70091       -0.69075       -0.65947       -0.62772       -0.61445
       -0.60686       -0.58376       -0.57325       -0.56606       -0.52433
       -0.51046       -0.50313       -0.50090       -0.45089       -0.41632
        0.14625        0.18190        0.19967        0.23329        0.25442
        0.28417        0.29547        0.30154        0.31464        0.34298
        0.40603        0.48083        0.52759        0.56062        0.56817
        0.59508        0.60880        0.62674        0.63062        0.63577
        0.66126        0.70988        0.93236        0.94728        0.96591
        0.98331        0.99593        0.99893        1.02679        1.03375
        1.05988        1.07576        1.11997        1.12161        1.13969
        1.16122        1.20181        1.31907        1.32474        1.34365
        1.35525        1.36586        1.40139        1.42128        1.50642
        1.51803        1.53952        1.55012        1.55650        1.58177
        1.61227        1.65876        1.68327        1.74577        1.75476
        1.78522        1.81995        1.84626        1.88568        1.89452
        1.90211        1.95516        2.00949        2.05055        2.17513
        2.18761        2.20732        2.24289        2.27991        2.31476
        2.35708        2.37715        2.38717        2.49220        2.55835
        2.61054        2.63310        2.64382        2.69693        2.74243
        2.78597        2.79220        2.83167        2.88932        2.90687
        2.95283        2.98834        3.04158        3.15860        3.44340
        3.46243        3.46275        3.46632        3.46728        3.46849
        3.51228        3.53336        3.53847        3.54365        3.63881
        3.66826        3.66979        3.68874        3.94416        4.00278
        4.01668        4.03707        4.21924        4.22618        4.23983
        4.24509        4.62828        5.18390        5.22178        5.31361
        5.34685        5.36736        5.38824        5.71813        5.72269
        5.73455        5.74843        5.98087        6.08389        6.14256
        6.15583       37.03723       51.48437       51.52725       51.52988
       51.56961
 Time used in FCKEIG, thr_jaco:   2.22D-01  2.20D-02  4.25D-07
 CPU and wall times used in FCKEIG, THR_FCKEIG:   2.22D-01  2.20D-02  9.72D-05
 -----------------------------------------------------------------------------

 *** DIIS iteration number    7
 RDSUPM called. NFMAT, ISYMDM(1:NFMAT)                     1
                     1

 ITDIIS, energy, error norm, change in energy, scr.thr., difden:
@ DIIS iter.   7    -360.757972739        2.60267D-03   -9.58D-06  -20    F

 (DIIS_RED) Control Parameters C2DIIS =         F NEVC =    7


 (DIIS_RED) B matrix:

               Column   1     Column   2     Column   3     Column   4     Column   5     Column   6
       1      14.56018094
       2       0.64462127     0.97904812
       3       0.73233272     0.02253412     0.14502641
       4       0.01704323     0.09137830    -0.00464963     0.01300295
       5       0.01553075     0.00692427     0.00544290     0.00111366     0.00068981
       6      -0.00121187    -0.00033621     0.00076216     0.00032952     0.00006914     0.00009454
       7       0.00035086    -0.00007898     0.00009253     0.00000201     0.00004565     0.00000163

               Column   7
       7       0.00000677
    ==== End of matrix output ====

 DIIS C vector; C2DIIS = F, LAMBDA = -1.56D-06
   -0.000220   -0.001501    0.007702    0.028433   -0.156638   -0.058642    1.180867
* Read MO coefficients from SIRIUS.RST with label "NEWORB  " and header info: 28Dec18  DIIS   7
      Virial theorem: -V/T =      2.003038
@      MULPOP N      -0.62; H       0.18; H       0.24; H       0.23; O      -0.69; O      -0.70; O      -0.81; O      -0.57; H       0.33; H       0.36; 
@             H       0.33; H       0.38; H       0.36; H       0.38; H       0.33; H       0.26; 

 DIIS Fock eigenvalues in symmetry 1
      -20.55648      -20.55080      -20.54371      -20.49066      -15.53218
       -1.33211       -1.32219       -1.31887       -1.24724       -1.13340
       -0.70097       -0.69079       -0.65947       -0.62758       -0.61435
       -0.60670       -0.58388       -0.57334       -0.56619       -0.52416
       -0.51039       -0.50310       -0.50085       -0.45054       -0.41612
        0.14626        0.18191        0.19966        0.23332        0.25443
        0.28420        0.29549        0.30155        0.31467        0.34300
        0.40611        0.48089        0.52768        0.56066        0.56822
        0.59512        0.60880        0.62674        0.63061        0.63576
        0.66131        0.70994        0.93247        0.94736        0.96599
        0.98333        0.99599        0.99890        1.02689        1.03387
        1.05998        1.07579        1.11997        1.12163        1.13978
        1.16122        1.20194        1.31910        1.32474        1.34367
        1.35532        1.36594        1.40149        1.42126        1.50643
        1.51813        1.53949        1.55008        1.55647        1.58174
        1.61239        1.65885        1.68326        1.74575        1.75472
        1.78533        1.81998        1.84635        1.88573        1.89448
        1.90209        1.95514        2.00955        2.05063        2.17514
        2.18765        2.20739        2.24285        2.27988        2.31484
        2.35705        2.37711        2.38712        2.49233        2.55838
        2.61051        2.63306        2.64379        2.69698        2.74244
        2.78596        2.79217        2.83162        2.88930        2.90696
        2.95295        2.98850        3.04174        3.15871        3.44345
        3.46251        3.46276        3.46632        3.46748        3.46858
        3.51250        3.53331        3.53846        3.54393        3.63882
        3.66840        3.66995        3.68871        3.94415        4.00303
        4.01667        4.03706        4.21953        4.22614        4.23983
        4.24511        4.62860        5.18415        5.22203        5.31358
        5.34683        5.36729        5.38866        5.71827        5.72283
        5.73454        5.74839        5.98083        6.08429        6.14248
        6.15579       37.03776       51.48425       51.52709       51.52977
       51.57025
 Time used in FCKEIG, thr_jaco:   2.23D-01  2.30D-02  1.14D-07
 CPU and wall times used in FCKEIG, THR_FCKEIG:   2.23D-01  2.30D-02  2.60D-05
 -----------------------------------------------------------------------------

 *** DIIS iteration number    8
 RDSUPM called. NFMAT, ISYMDM(1:NFMAT)                     1
                     1

 ITDIIS, energy, error norm, change in energy, scr.thr., difden:
@ DIIS iter.   8    -360.757973553        4.18492D-04   -8.15D-07  -20    F

 (DIIS_RED) Control Parameters C2DIIS =         F NEVC =    8


 (DIIS_RED) B matrix:

               Column   1     Column   2     Column   3     Column   4     Column   5     Column   6
       1      14.56018094
       2       0.64462127     0.97904812
       3       0.73233272     0.02253412     0.14502641
       4       0.01704323     0.09137830    -0.00464963     0.01300295
       5       0.01553075     0.00692427     0.00544290     0.00111366     0.00068981
       6      -0.00121187    -0.00033621     0.00076216     0.00032952     0.00006914     0.00009454
       7       0.00035086    -0.00007898     0.00009253     0.00000201     0.00004565     0.00000163
       8       0.00014522     0.00000594     0.00000036     0.00000335     0.00000143     0.00000162

               Column   7     Column   8
       7       0.00000677
       8       0.00000047     0.00000018
    ==== End of matrix output ====

 DIIS C vector; C2DIIS = F, LAMBDA = -1.13D-07
   -0.000010   -0.000090   -0.000165   -0.000078    0.011567   -0.023405   -0.134139    1.146320
* Read MO coefficients from SIRIUS.RST with label "NEWORB  " and header info: 28Dec18  DIIS   8
      Virial theorem: -V/T =      2.003050
@      MULPOP N      -0.62; H       0.18; H       0.24; H       0.23; O      -0.69; O      -0.70; O      -0.81; O      -0.57; H       0.33; H       0.36; 
@             H       0.33; H       0.38; H       0.36; H       0.38; H       0.33; H       0.26; 

 DIIS Fock eigenvalues in symmetry 1
      -20.55640      -20.55071      -20.54365      -20.49069      -15.53217
       -1.33208       -1.32217       -1.31884       -1.24725       -1.13340
       -0.70094       -0.69077       -0.65944       -0.62758       -0.61435
       -0.60671       -0.58388       -0.57334       -0.56618       -0.52417
       -0.51035       -0.50306       -0.50083       -0.45054       -0.41613
        0.14626        0.18191        0.19966        0.23332        0.25443
        0.28420        0.29550        0.30155        0.31467        0.34300
        0.40611        0.48089        0.52767        0.56066        0.56822
        0.59513        0.60880        0.62674        0.63061        0.63576
        0.66131        0.70994        0.93247        0.94737        0.96599
        0.98333        0.99601        0.99891        1.02690        1.03387
        1.05998        1.07580        1.11998        1.12164        1.13979
        1.16123        1.20194        1.31911        1.32476        1.34369
        1.35532        1.36594        1.40149        1.42127        1.50643
        1.51812        1.53949        1.55009        1.55648        1.58174
        1.61238        1.65885        1.68326        1.74575        1.75473
        1.78531        1.81997        1.84634        1.88573        1.89449
        1.90209        1.95515        2.00955        2.05062        2.17515
        2.18765        2.20739        2.24285        2.27988        2.31484
        2.35706        2.37712        2.38713        2.49232        2.55838
        2.61051        2.63306        2.64379        2.69697        2.74244
        2.78596        2.79217        2.83162        2.88930        2.90694
        2.95295        2.98850        3.04173        3.15871        3.44346
        3.46252        3.46278        3.46635        3.46748        3.46859
[...]

 Principal values of diagonalized transition strength matrix:

             a.u.               
 1      -0.00000000
 2      -0.00000000
 3       0.00017613

 Principal axis of diagonalized transition strength matrix:


               Column   1     Column   2     Column   3
       1       0.91783967    -0.38194350    -0.10811801
       2       0.30581905     0.50674035     0.80603283
       3       0.25307124     0.77287346    -0.58191199
    ==== End of matrix output ====


 CCSD   oscillator strength matrix for state nr. 13 of symmetry 1
 CCSD  excitation energy:15.14681614


               Column   1     Column   2     Column   3
       1       0.00002077    -0.00015500     0.00011189
       2      -0.00015500     0.00115548    -0.00083420
       3       0.00011189    -0.00083420     0.00060224
    ==== End of matrix output ====

 Principal values of diagonalized oscillator strength matrix:

             a.u.               
 1      -0.00000002
 2      -0.00000000
 3       0.00177852

 Principal axis of diagonalized oscillator strength matrix:


               Column   1     Column   2     Column   3
       1       0.91783967    -0.38194350    -0.10811801
       2       0.30581905     0.50674035     0.80603283
       3       0.25307124     0.77287346    -0.58191199
    ==== End of matrix output ====


 CCSD  Transition strength matrix for state nr. 14 of symmetry 1
 CCSD  excitation energy:15.22445991

 Gauge: length

               Column   1     Column   2     Column   3
       1     1.881492D-06  -2.161339D-06   7.693021D-06
       2    -2.161339D-06   2.482161D-06  -8.836087D-06
       3     7.693021D-06  -8.836087D-06   3.145302D-05
    ==== End of matrix output ====

 Principal values of diagonalized transition strength matrix:

             a.u.               
 1      -0.00000000
 2      -0.00000000
 3       0.00003582

 Principal axis of diagonalized transition strength matrix:


               Column   1     Column   2     Column   3
       1       0.67704964     0.69933498     0.22920379
       2       0.73480386    -0.62510618    -0.26325947
       3       0.04082985    -0.34665955     0.93710196
    ==== End of matrix output ====


 CCSD   oscillator strength matrix for state nr. 14 of symmetry 1
 CCSD  excitation energy:15.22445991


               Column   1     Column   2     Column   3
       1     1.909646D-05  -2.193681D-05   7.808139D-05
       2    -2.193681D-05   2.519304D-05  -8.968310D-05
       3     7.808139D-05  -8.968310D-05   3.192369D-04
    ==== End of matrix output ====

 Principal values of diagonalized oscillator strength matrix:

             a.u.               
 1      -0.00000000
 2      -0.00000000
 3       0.00036353

 Principal axis of diagonalized oscillator strength matrix:


               Column   1     Column   2     Column   3
       1       0.67704964     0.69933498     0.22920379
       2       0.73480386    -0.62510618    -0.26325947
       3       0.04082985    -0.34665955     0.93710196
    ==== End of matrix output ====


 CCSD  Transition strength matrix for state nr. 15 of symmetry 1
 CCSD  excitation energy:15.28780879

 Gauge: length

               Column   1     Column   2     Column   3
       1     7.479014D-06  -2.105946D-05   3.418844D-05
       2    -2.105946D-05   5.925934D-05  -9.622151D-05
       3     3.418844D-05  -9.622151D-05   1.562298D-04
    ==== End of matrix output ====

 Principal values of diagonalized transition strength matrix:

             a.u.               
 1      -0.00000001
 2       0.00000000
 3       0.00022297

 Principal axis of diagonalized transition strength matrix:


               Column   1     Column   2     Column   3
       1       0.74097935     0.64606045     0.18318160
       2       0.63197205    -0.57864769    -0.51553679
       3       0.22707032    -0.49776777     0.83705813
    ==== End of matrix output ====


 CCSD   oscillator strength matrix for state nr. 15 of symmetry 1
 CCSD  excitation energy:15.28780879


               Column   1     Column   2     Column   3
       1       0.00007623    -0.00021464     0.00034844
       2      -0.00021464     0.00060396    -0.00098068
       3       0.00034844    -0.00098068     0.00159227
    ==== End of matrix output ====

 Principal values of diagonalized oscillator strength matrix:

             a.u.               
 1      -0.00000006
 2      -0.00000000
 3       0.00227252

 Principal axis of diagonalized oscillator strength matrix:


               Column   1     Column   2     Column   3
       1       0.74097935     0.64606045     0.18318160
       2       0.63197205    -0.57864769    -0.51553679
       3       0.22707032    -0.49776777     0.83705813
    ==== End of matrix output ====

  Total time for    135 linear response residues:     153.44 seconds.
  

 *******************************************************************************
 *******************************************************************************
 *                                                                             *
 *                                                                             *
 *                   SUMMARY OF COUPLED CLUSTER CALCULATION                    *
 *                                                                             *
 *                                                                             *
 *******************************************************************************
 *******************************************************************************

                                                                                
                                                                                
            Total SCF   energy:                  -360.7579735793                
            Total MP2   energy:                  -361.8633493731                
            Total CCSD  energy:                  -361.9027839211                
                                                                                
                                                                                
            Total SCF   energy:                  -360.7579735793                
            Total RSTAR energy:                  -361.9027839211                
            Total CCSD  energy:                  -361.9029445874                
                                                                                
                                                                                
            Total SCF   energy:                  -360.7579735793                
            Total RSTAR energy:                  -361.9029445874                
            Total CCSD  energy:                  -361.9029459844                
                                                                                
                                                                                
            Total SCF   energy:                  -360.7579735793                
            Total RSTAR energy:                  -361.9029459844                
            Total CCSD  energy:                  -361.9029461140                
                                                                                
                                                                                
            Total SCF   energy:                  -360.7579735793                
            Total RSTAR energy:                  -361.9029461140                
            Total CCSD  energy:                  -361.9029461188                
                                                                                
                                                                                
            Total SCF   energy:                  -360.7579735793                
            Total RSTAR energy:                  -361.9029461188                
            Total CCSD  energy:                  -361.9029461189                
            CCSD Total  energy:                  -362.3000020841                
            CCSD E(QM/MM)     :                    -0.3921517242                
                                                                                
                                                                                
                                                                                
 +=============================================================================+
 |  sym. | Exci.  |        CCSD       Excitation energies            | ||T1||  |
 |(spin, |        +------------------------------------------------------------+
 | spat) |        |     Hartree    |       eV.      |     cm-1       |    %    |
 +=============================================================================+
 | ^1A   |    1   |    14.8238902  |     403.37857  |   3253467.799  |  88.28  |
 | ^1A   |    2   |    14.8849912  |     405.04122  |   3266877.934  |  88.71  |
 | ^1A   |    3   |    14.9007458  |     405.46992  |   3270335.669  |  88.77  |
 | ^1A   |    4   |    14.9743489  |     407.47276  |   3286489.669  |  88.17  |
 | ^1A   |    5   |    14.9920937  |     407.95562  |   3290384.207  |  88.22  |
 | ^1A   |    6   |    15.0004571  |     408.18320  |   3292219.770  |  88.00  |
 | ^1A   |    7   |    15.0270778  |     408.90759  |   3298062.332  |  88.08  |
 | ^1A   |    8   |    15.0485763  |     409.49259  |   3302780.709  |  88.04  |
 | ^1A   |    9   |    15.0708278  |     410.09808  |   3307664.337  |  87.87  |
 | ^1A   |   10   |    15.0888557  |     410.58865  |   3311621.016  |  87.88  |
 | ^1A   |   11   |    15.1062700  |     411.06252  |   3315443.000  |  87.99  |
 | ^1A   |   12   |    15.1239489  |     411.54358  |   3319323.071  |  87.90  |
 | ^1A   |   13   |    15.1468161  |     412.16583  |   3324341.857  |  87.91  |
 | ^1A   |   14   |    15.2244599  |     414.27863  |   3341382.696  |  87.84  |
 | ^1A   |   15   |    15.2878088  |     416.00244  |   3355286.168  |  87.77  |
 +=============================================================================+
                                                                                
                                                                                
     Total energies in Hartree:                                                 
             1 ^1A       -347.0839601953                                        
             2 ^1A       -347.0228591250                                        
             3 ^1A       -347.0071045250                                        
             4 ^1A       -346.9335014855                                        
             5 ^1A       -346.9157566638                                        
             6 ^1A       -346.9073932214                                        
             7 ^1A       -346.8807725506                                        
             8 ^1A       -346.8592740433                                        
             9 ^1A       -346.8370225998                                        
            10 ^1A       -346.8189946404                                        
            11 ^1A       -346.8015803986                                        
            12 ^1A       -346.7839014987                                        
            13 ^1A       -346.7610342246                                        
            14 ^1A       -346.6833904476                                        
            15 ^1A       -346.6200415699                                        
                                                                                
                                                                                
 +=============================================================================+
 |  sym. | Exci.  |        CCSD       Length   Gauge Oscillator Strength       |
 |(spin, |        +------------------------------------------------------------+
 | spat) |        | Dipole Strength(a.u.) | Oscillator strength  | Direction   |
 +=============================================================================+
 | ^1A   |    1   |        0.0007543      |      0.0074548       |  (Y,Z)      |
 | ^1A   |    2   |        0.0036312      |      0.0360332       |  (Y,Z)      |
 | ^1A   |    3   |        0.0037149      |      0.0369036       |  (Y,Z)      |
 | ^1A   |    4   |        0.0009328      |      0.0093125       |  (Y,Z)      |
 | ^1A   |    5   |        0.0013739      |      0.0137313       |  (Y,Z)      |
 | ^1A   |    6   |        0.0001312      |      0.0013124       |  (Y,Z)      |
 | ^1A   |    7   |        0.0007361      |      0.0073746       |  (Y,Z)      |
 | ^1A   |    8   |        0.0001921      |      0.0019270       |  (Y,Z)      |
 | ^1A   |    9   |        0.0001016      |      0.0010203       |  (Y,Z)      |
 | ^1A   |   10   |        0.0000745      |      0.0007498       |  (Y,Z)      |
 | ^1A   |   11   |        0.0004653      |      0.0046858       |  (Y,Z)      |
 | ^1A   |   12   |        0.0003100      |      0.0031252       |  (Y,Z)      |
 | ^1A   |   13   |        0.0001761      |      0.0017785       |  (Y,Z)      |
 | ^1A   |   14   |        0.0000358      |      0.0003635       |  (Y,Z)      |
 | ^1A   |   15   |        0.0002230      |      0.0022725       |  (Y,Z)      |
 +=============================================================================+

  1 a.u. =        27.21138 eV.  
  1 a.u. =    219474.62934 cm-1.
  

 *******************************************************************************
 *******************************************************************************
 *                                                                             *
 *                                                                             *
 *                      END OF COUPLED CLUSTER CALCULATION                     *
 *                                                                             *
 *                                                                             *
 *******************************************************************************
 *******************************************************************************


 CPU and wall time for CC :  628907.844  127187.518

 
     Date and time (Linux)  : Sun Dec 30 00:13:11 2018
     Host name              : n-62-23-24                              


                      .-------------------------------------.
                      | End of Coupled Cluster Section (CC) |
                      `-------------------------------------'

  Total CPU  time used in DALTON: 174 hours 54 minutes 14 seconds
  Total wall time used in DALTON:  35 hours 22 minutes 10 seconds

 
     Date and time (Linux)  : Sun Dec 30 00:13:11 2018
     Host name              : n-62-23-24                              
  

 +---------------------------------------------------------+ 
 | List of selected calculated molecular properties (a.u.) | 
 +---------------------------------------------------------+ 

  Properties are read from unit number                      4

 CCSD       properties :
 #  1 1 CCSD/MM  Ground state Energy =    -362.3000020841
 #  2 1 E_QM/MM  Ground state Energy =      -0.3921517242
 #  3 1 Sy: 1 Sp: 1 Exc:  1 E_tot:   -347.0839601953 w:     14.8238901646 E_grs:   -361.9078503599
 #  4 1 Exctot   Excited state Energy =    -347.0839601953
 #  5 1 Sy: 1 Sp: 1 Exc:  2 E_tot:   -347.0228591250 w:     14.8849912350 E_grs:   -361.9078503599
 #  6 1 Exctot   Excited state Energy =    -347.0228591250
 #  7 1 Sy: 1 Sp: 1 Exc:  3 E_tot:   -347.0071045250 w:     14.9007458349 E_grs:   -361.9078503599
 #  8 1 Exctot   Excited state Energy =    -347.0071045250
 #  9 1 Sy: 1 Sp: 1 Exc:  4 E_tot:   -346.9335014855 w:     14.9743488744 E_grs:   -361.9078503599
 # 10 1 Exctot   Excited state Energy =    -346.9335014855
 # 11 1 Sy: 1 Sp: 1 Exc:  5 E_tot:   -346.9157566638 w:     14.9920936961 E_grs:   -361.9078503599
 # 12 1 Exctot   Excited state Energy =    -346.9157566638
 # 13 1 Sy: 1 Sp: 1 Exc:  6 E_tot:   -346.9073932214 w:     15.0004571385 E_grs:   -361.9078503599
 # 14 1 Exctot   Excited state Energy =    -346.9073932214
 # 15 1 Sy: 1 Sp: 1 Exc:  7 E_tot:   -346.8807725506 w:     15.0270778093 E_grs:   -361.9078503599
 # 16 1 Exctot   Excited state Energy =    -346.8807725506
 # 17 1 Sy: 1 Sp: 1 Exc:  8 E_tot:   -346.8592740433 w:     15.0485763166 E_grs:   -361.9078503599
 # 18 1 Exctot   Excited state Energy =    -346.8592740433
 # 19 1 Sy: 1 Sp: 1 Exc:  9 E_tot:   -346.8370225998 w:     15.0708277602 E_grs:   -361.9078503599
 # 20 1 Exctot   Excited state Energy =    -346.8370225998
 # 21 1 Sy: 1 Sp: 1 Exc: 10 E_tot:   -346.8189946404 w:     15.0888557196 E_grs:   -361.9078503599
 # 22 1 Exctot   Excited state Energy =    -346.8189946404
 # 23 1 Sy: 1 Sp: 1 Exc: 11 E_tot:   -346.8015803986 w:     15.1062699613 E_grs:   -361.9078503599
 # 24 1 Exctot   Excited state Energy =    -346.8015803986
 # 25 1 Sy: 1 Sp: 1 Exc: 12 E_tot:   -346.7839014987 w:     15.1239488613 E_grs:   -361.9078503599
 # 26 1 Exctot   Excited state Energy =    -346.7839014987
 # 27 1 Sy: 1 Sp: 1 Exc: 13 E_tot:   -346.7610342246 w:     15.1468161353 E_grs:   -361.9078503599
 # 28 1 Exctot   Excited state Energy =    -346.7610342246
 # 29 1 Sy: 1 Sp: 1 Exc: 14 E_tot:   -346.6833904476 w:     15.2244599123 E_grs:   -361.9078503599
 # 30 1 Exctot   Excited state Energy =    -346.6833904476
 # 31 1 Sy: 1 Sp: 1 Exc: 15 E_tot:   -346.6200415699 w:     15.2878087901 E_grs:   -361.9078503599
 # 32 1 Exctot   Excited state Energy =    -346.6200415699
 # 33 1 |<O|XDIPLEN |i(14.823890)>| =     0.00053472
 # 35 1 |<O|XDIPLEN |i(14.884991)>| =     0.01760839
 # 37 1 |<O|XDIPLEN |i(14.900746)>| =     0.05887806
 # 39 1 |<O|XDIPLEN |i(14.974349)>| =     0.01361639
 # 41 1 |<O|XDIPLEN |i(14.992094)>| =     0.00350608
 # 43 1 |<O|XDIPLEN |i(15.000457)>| =     0.01042436
 # 45 1 |<O|XDIPLEN |i(15.027078)>| =     0.01952891
 # 47 1 |<O|XDIPLEN |i(15.048576)>| =     0.00237542
 # 49 1 |<O|XDIPLEN |i(15.070828)>| =     0.00252436
 # 51 1 |<O|XDIPLEN |i(15.088856)>| =     0.00035408
 # 53 1 |<O|XDIPLEN |i(15.106270)>| =     0.00072581
 # 55 1 |<O|XDIPLEN |i(15.123949)>| =     0.00401301
 # 57 1 |<O|XDIPLEN |i(15.146816)>| =     0.00143421
 # 59 1 |<O|XDIPLEN |i(15.224460)>| =     0.00137167
 # 61 1 |<O|XDIPLEN |i(15.287809)>| =     0.00273478
 # 63 1 |<O|YDIPLEN |i(14.823890)>| =     0.01241098
 # 65 1 |<O|YDIPLEN |i(14.884991)>| =     0.04196647
 # 67 1 |<O|YDIPLEN |i(14.900746)>| =     0.00603627
 # 69 1 |<O|YDIPLEN |i(14.974349)>| =     0.02713605
 # 71 1 |<O|YDIPLEN |i(14.992094)>| =     0.02031992
 # 73 1 |<O|YDIPLEN |i(15.000457)>| =     0.00372995
 # 75 1 |<O|YDIPLEN |i(15.027078)>| =     0.01740566
 # 77 1 |<O|YDIPLEN |i(15.048576)>| =     0.00634599
 # 79 1 |<O|YDIPLEN |i(15.070828)>| =     0.00287241
 # 81 1 |<O|YDIPLEN |i(15.088856)>| =     0.00237596
 # 83 1 |<O|YDIPLEN |i(15.106270)>| =     0.00967100
 # 85 1 |<O|YDIPLEN |i(15.123949)>| =     0.01388760
 # 87 1 |<O|YDIPLEN |i(15.146816)>| =     0.01069711
 # 89 1 |<O|YDIPLEN |i(15.224460)>| =     0.00157549
 # 91 1 |<O|YDIPLEN |i(15.287809)>| =     0.00769801
 # 93 1 |<O|ZDIPLEN |i(14.823890)>| =     0.02449517
 # 95 1 |<O|ZDIPLEN |i(14.884991)>| =     0.03949582
 # 97 1 |<O|ZDIPLEN |i(14.900746)>| =     0.01455607
 # 99 1 |<O|ZDIPLEN |i(14.974349)>| =     0.00332795
 #101 1 |<O|ZDIPLEN |i(14.992094)>| =     0.03080032
 #103 1 |<O|ZDIPLEN |i(15.000457)>| =     0.00294164
 #105 1 |<O|ZDIPLEN |i(15.027078)>| =     0.00719671
 #107 1 |<O|ZDIPLEN |i(15.048576)>| =     0.01208962
 #109 1 |<O|ZDIPLEN |i(15.070828)>| =     0.00932356
 #111 1 |<O|ZDIPLEN |i(15.088856)>| =     0.00829234
 #113 1 |<O|ZDIPLEN |i(15.106270)>| =     0.01926741
 #115 1 |<O|ZDIPLEN |i(15.123949)>| =     0.01004955
 #117 1 |<O|ZDIPLEN |i(15.146816)>| =     0.00772273
 #119 1 |<O|ZDIPLEN |i(15.224460)>| =     0.00560830
 #121 1 |<O|ZDIPLEN |i(15.287809)>| =     0.01249919

 THE_END   
