

     ************************************************************************
     *************** Dalton - An Electronic Structure Program ***************
     ************************************************************************

    This is output from DALTON release Dalton2017.alpha (2016)
         ( Web site: http://daltonprogram.org )

   ----------------------------------------------------------------------------

    NOTE:
     
    Dalton is an experimental code for the evaluation of molecular
    properties using (MC)SCF, DFT, CI, and CC wave functions.
    The authors accept no responsibility for the performance of
    the code or for the correctness of the results.
     
    The code (in whole or part) is provided under a licence and
    is not to be reproduced for further distribution without
    the written permission of the authors or their representatives.
     
    See the home page "http://daltonprogram.org" for further information.
     
    If results obtained with this code are published,
    the appropriate citations would be both of:
     
       K. Aidas, C. Angeli, K. L. Bak, V. Bakken, R. Bast,
       L. Boman, O. Christiansen, R. Cimiraglia, S. Coriani,
       P. Dahle, E. K. Dalskov, U. Ekstroem,
       T. Enevoldsen, J. J. Eriksen, P. Ettenhuber, B. Fernandez,
       L. Ferrighi, H. Fliegl, L. Frediani, K. Hald, A. Halkier,
       C. Haettig, H. Heiberg, T. Helgaker, A. C. Hennum,
       H. Hettema, E. Hjertenaes, S. Hoest, I.-M. Hoeyvik,
       M. F. Iozzi, B. Jansik, H. J. Aa. Jensen, D. Jonsson,
       P. Joergensen, J. Kauczor, S. Kirpekar,
       T. Kjaergaard, W. Klopper, S. Knecht, R. Kobayashi, H. Koch,
       J. Kongsted, A. Krapp, K. Kristensen, A. Ligabue,
       O. B. Lutnaes, J. I. Melo, K. V. Mikkelsen, R. H. Myhre,
       C. Neiss, C. B. Nielsen, P. Norman, J. Olsen,
       J. M. H. Olsen, A. Osted, M. J. Packer, F. Pawlowski,
       T. B. Pedersen, P. F. Provasi, S. Reine, Z. Rinkevicius,
       T. A. Ruden, K. Ruud, V. Rybkin, P. Salek, C. C. M. Samson,
       A. Sanchez de Meras, T. Saue, S. P. A. Sauer,
       B. Schimmelpfennig, K. Sneskov, A. H. Steindal,
       K. O. Sylvester-Hvid, P. R. Taylor, A. M. Teale,
       E. I. Tellgren, D. P. Tew, A. J. Thorvaldsen, L. Thoegersen,
       O. Vahtras, M. A. Watson, D. J. D. Wilson, M. Ziolkowski
       and H. Agren,
       "The Dalton quantum chemistry program system",
       WIREs Comput. Mol. Sci. 2014, 4:269–284 (doi: 10.1002/wcms.1172)
     
    and
     
       Dalton, a Molecular Electronic Structure Program,
       Release Dalton2017.alpha (2016), see http://daltonprogram.org
   ----------------------------------------------------------------------------

    Authors in alphabetical order (major contribution(s) in parenthesis):

  Kestutis Aidas,           Vilnius University,           Lithuania   (QM/MM)
  Celestino Angeli,         University of Ferrara,        Italy       (NEVPT2)
  Keld L. Bak,              UNI-C,                        Denmark     (AOSOPPA, non-adiabatic coupling, magnetic properties)
  Vebjoern Bakken,          University of Oslo,           Norway      (DALTON; geometry optimizer, symmetry detection)
  Radovan Bast,             UiT The Arctic U. of Norway,  Norway      (DALTON installation and execution frameworks)
  Pablo Baudin,             University of Valencia,       Spain       (Cholesky excitation energies)
  Linus Boman,              NTNU,                         Norway      (Cholesky decomposition and subsystems)
  Ove Christiansen,         Aarhus University,            Denmark     (CC module)
  Renzo Cimiraglia,         University of Ferrara,        Italy       (NEVPT2)
  Sonia Coriani,            University of Trieste,        Italy       (CC module, MCD in RESPONS)
  Janusz Cukras,            University of Trieste,        Italy       (MChD in RESPONS)
  Paal Dahle,               University of Oslo,           Norway      (Parallelization)
  Erik K. Dalskov,          UNI-C,                        Denmark     (SOPPA)
  Thomas Enevoldsen,        Univ. of Southern Denmark,    Denmark     (SOPPA)
  Janus J. Eriksen,         Aarhus University,            Denmark     (Polarizable embedding model, TDA)
  Rasmus Faber,             University of Copenhagen,     Denmark     (Vib.avg. NMR with SOPPA, parallel AO-SOPPA)
  Berta Fernandez,          U. of Santiago de Compostela, Spain       (doublet spin, ESR in RESPONS)
  Lara Ferrighi,            Aarhus University,            Denmark     (PCM Cubic response)
  Heike Fliegl,             University of Oslo,           Norway      (CCSD(R12))
  Luca Frediani,            UiT The Arctic U. of Norway,  Norway      (PCM)
  Bin Gao,                  UiT The Arctic U. of Norway,  Norway      (Gen1Int library)
  Christof Haettig,         Ruhr-University Bochum,       Germany     (CC module)
  Kasper Hald,              Aarhus University,            Denmark     (CC module)
  Asger Halkier,            Aarhus University,            Denmark     (CC module)
  Frederik Beyer Hansen,    University of Copenhagen,     Denmark     (Parallel AO-SOPPA)
  Erik D. Hedegaard,        Univ. of Southern Denmark,    Denmark     (Polarizable embedding model, QM/MM)
  Hanne Heiberg,            University of Oslo,           Norway      (geometry analysis, selected one-electron integrals)
  Trygve Helgaker,          University of Oslo,           Norway      (DALTON; ABACUS, ERI, DFT modules, London, and much more)
  Alf Christian Hennum,     University of Oslo,           Norway      (Parity violation)
  Hinne Hettema,            University of Auckland,       New Zealand (quadratic response in RESPONS; SIRIUS supersymmetry)
  Eirik Hjertenaes,         NTNU,                         Norway      (Cholesky decomposition)
  Pi A. B. Haase,           University of Copenhagen,     Denmark     (Triplet AO-SOPPA)
  Maria Francesca Iozzi,    University of Oslo,           Norway      (RPA)
  Brano Jansik              Technical Univ. of Ostrava    Czech Rep.  (DFT cubic response)
  Hans Joergen Aa. Jensen,  Univ. of Southern Denmark,    Denmark     (DALTON; SIRIUS, RESPONS, ABACUS modules, London, and much more)
  Dan Jonsson,              UiT The Arctic U. of Norway,  Norway      (cubic response in RESPONS module)
  Poul Joergensen,          Aarhus University,            Denmark     (RESPONS, ABACUS, and CC modules)
  Maciej Kaminski,          University of Warsaw,         Poland      (CPPh in RESPONS)
  Joanna Kauczor,           Linkoeping University,        Sweden      (Complex polarization propagator (CPP) module)
  Sheela Kirpekar,          Univ. of Southern Denmark,    Denmark     (Mass-velocity & Darwin integrals)
  Wim Klopper,              KIT Karlsruhe,                Germany     (R12 code in CC, SIRIUS, and ABACUS modules)
  Stefan Knecht,            ETH Zurich,                   Switzerland (Parallel CI and MCSCF)
  Rika Kobayashi,           Australian National Univ.,    Australia   (DIIS in CC, London in MCSCF)
  Henrik Koch,              NTNU,                         Norway      (CC module, Cholesky decomposition)
  Jacob Kongsted,           Univ. of Southern Denmark,    Denmark     (Polarizable embedding model, QM/MM)
  Andrea Ligabue,           University of Modena,         Italy       (CTOCD, AOSOPPA)
  Nanna H. List             Univ. of Southern Denmark,    Denmark     (Polarizable embedding model)
  Ola B. Lutnaes,           University of Oslo,           Norway      (DFT Hessian)
  Juan I. Melo,             University of Buenos Aires,   Argentina   (LRESC, Relativistic Effects on NMR Shieldings)
  Kurt V. Mikkelsen,        University of Copenhagen,     Denmark     (MC-SCRF and QM/MM)
  Rolf H. Myhre,            NTNU,                         Norway      (Cholesky, subsystems and ECC2)
  Christian Neiss,          Univ. Erlangen-Nuernberg,     Germany     (CCSD(R12))
  Christian B. Nielsen,     University of Copenhagen,     Denmark     (QM/MM)
  Patrick Norman,           Linkoeping University,        Sweden      (Cubic response and complex frequency response in RESPONS)
  Jeppe Olsen,              Aarhus University,            Denmark     (SIRIUS CI/density modules)
  Jogvan Magnus H. Olsen,   Univ. of Southern Denmark,    Denmark     (Polarizable embedding model, QM/MM)
  Anders Osted,             Copenhagen University,        Denmark     (QM/MM)
  Martin J. Packer,         University of Sheffield,      UK          (SOPPA)
  Filip Pawlowski,          Kazimierz Wielki University,  Poland      (CC3)
  Morten N. Pedersen,       Univ. of Southern Denmark,    Denmark     (Polarizable embedding model)
  Thomas B. Pedersen,       University of Oslo,           Norway      (Cholesky decomposition)
  Patricio F. Provasi,      University of Northeastern,   Argentina   (Analysis of coupling constants in localized orbitals)
  Zilvinas Rinkevicius,     KTH Stockholm,                Sweden      (open-shell DFT, ESR)
  Elias Rudberg,            KTH Stockholm,                Sweden      (DFT grid and basis info)
  Torgeir A. Ruden,         University of Oslo,           Norway      (Numerical derivatives in ABACUS)
  Kenneth Ruud,             UiT The Arctic U. of Norway,  Norway      (DALTON; ABACUS magnetic properties and much more)
  Pawel Salek,              KTH Stockholm,                Sweden      (DALTON; DFT code)
  Claire C. M. Samson       University of Karlsruhe       Germany     (Boys localization, r12 integrals in ERI)
  Alfredo Sanchez de Meras, University of Valencia,       Spain       (CC module, Cholesky decomposition)
  Trond Saue,               Paul Sabatier University,     France      (direct Fock matrix construction)
  Stephan P. A. Sauer,      University of Copenhagen,     Denmark     (SOPPA(CCSD), SOPPA prop., AOSOPPA, vibrational g-factors)
  Bernd Schimmelpfennig,    Forschungszentrum Karlsruhe,  Germany     (AMFI module)
  Kristian Sneskov,         Aarhus University,            Denmark     (Polarizable embedding model, QM/MM)
  Arnfinn H. Steindal,      UiT The Arctic U. of Norway,  Norway      (parallel QM/MM, Polarizable embedding model)
  Casper Steinmann,         Univ. of Southern Denmark,    Denmark     (QFIT, Polarizable embedding model)
  K. O. Sylvester-Hvid,     University of Copenhagen,     Denmark     (MC-SCRF)
  Peter R. Taylor,          VLSCI/Univ. of Melbourne,     Australia   (Symmetry handling ABACUS, integral transformation)
  Andrew M. Teale,          University of Nottingham,     England     (DFT-AC, DFT-D)
  David P. Tew,             University of Bristol,        England     (CCSD(R12))
  Olav Vahtras,             KTH Stockholm,                Sweden      (triplet response, spin-orbit, ESR, TDDFT, open-shell DFT)
  David J. Wilson,          La Trobe University,          Australia   (DFT Hessian and DFT magnetizabilities)
  Hans Agren,               KTH Stockholm,                Sweden      (SIRIUS module, RESPONS, MC-SCRF solvation model)
 --------------------------------------------------------------------------------

     Date and time (Linux)  : Fri Dec 28 01:15:47 2018
     Host name              : n-62-23-17                              

 * Work memory size             :  1280000000 =  9.537 gigabytes.

 * Directories for basis set searches:
   1) /zhome/37/3/129401/NH3NH4/CCSD/AIMD_SAMPLING/nh3_4h2o_nd
   2) /zhome/9a/4/124800/source/dalton/build-mlcc/basis


Compilation information
-----------------------

 Who compiled             | rfaber
 Host                     | hpclogin1
 System                   | Linux-2.6.32-696.1.1.el6.x86_64
 CMake generator          | Unix Makefiles
 Processor                | x86_64
 64-bit integers          | ON
 MPI                      | OFF
 Fortran compiler         | /opt/intel/2016update2/compilers_and_libraries_201
                          | 6.2.181/linux/bin/intel64/ifort
 Fortran compiler version | ifort (IFORT) 16.0.2 20160204
 C compiler               | /opt/intel/2016update2/compilers_and_libraries_201
                          | 6.2.181/linux/bin/intel64/icc
 C compiler version       | icc (ICC) 16.0.2 20160204
 C++ compiler             | /opt/intel/2016update2/compilers_and_libraries_201
                          | 6.2.181/linux/bin/intel64/icpc
 C++ compiler version     | icpc (ICC) 16.0.2 20160204
 Static linking           | OFF
 Last Git revision        | bb4d1599ca5680a9f3980451fc8bbefdba436d59
 Git branch               | mlcc
 Configuration time       | 2017-06-13 16:11:03.928841


   Content of the .dal input file
 ----------------------------------

**DALTON
.RUN WAVE FUNCTIONS
*QMMM
.QMMM
**INTEGRALS
.DIPLEN
**WAVE FUNCTIONS
.CC
*PRINT
!To check the origin of excit
.PRINTL
   0 11
*SCF INP
.THRESH
1.0D-7
*CC INP
.CCSD
.THRLEQ
 1.0D-9
.THRENR
 1.0D-10
.FROIMP
4
0
.PRINT
 1
.MAX IT
 1200
.MAXRED
 1200
.MXLRV
1199
*CCSLV
.CCMM
.MXSLIT
200
.MXINIT
4 5
*CCEXCI
.NCCEXC
 15
.CVSEPARA
1
1
*CCLRSD
.DIPOLE
**END OF DALTON INPUT


   Content of the .mol file
 ----------------------------

ATOMBASIS


Atomtypes=4 Charge=0 Nosymm Angstrom
   7.00000    1    Basis=6-311G**
N          0.000000        0.000000        0.000000
   1.00000    3    Basis=6-311G**
H          0.183361       -0.977029        0.015538
H         -0.031418        0.501544        0.887586
H         -0.913557        0.160170       -0.356088
   8.00000    4    Basis=6-311G**
O         -3.052755        0.811729       -0.497303
O          1.577880       -2.763451       -0.632322
O          2.600009        0.842151       -0.753132
O         -1.170075        1.941737        2.705840
   1.00000    8    Basis=6-311G**
H         -3.328564        1.347802       -1.267785
H         -3.234371        1.259290        0.308104
H          2.274273       -2.778426        0.070464
H          1.684175       -3.671342       -1.045806
H          2.913483        1.081157        0.160237
H          1.634299        0.489929       -0.540709
H         -2.119964        2.246526        2.536168
H         -0.829363        2.533298        3.441321


       *******************************************************************
       *********** Output from DALTON general input processing ***********
       *******************************************************************

 --------------------------------------------------------------------------------
   Overall default print level:    0
   Print level for DALTON.STAT:    1

    HERMIT 1- and 2-electron integral sections will be executed
    "Old" integral transformation used (limited to max 255 basis functions)
    Wave function sections will be executed (SIRIUS module)
 --------------------------------------------------------------------------------


 Changes of defaults for *QMMM  :
 --------------------------------

 +------------------+
 |  WORD: | CHANGE: |
 +------------------+
 |   QMMM |       T |
 +------------------+
 


   ****************************************************************************
   *************** Output of molecule and basis set information ***************
   ****************************************************************************


    The two title cards from your ".mol" input:
    ------------------------------------------------------------------------
 1:                                                                         
 2:                                                                         
    ------------------------------------------------------------------------

  Coordinates are entered in Angstrom and converted to atomic units.
          - Conversion factor : 1 bohr = 0.52917721 A

  Atomic type no.    1
  --------------------
  Nuclear charge:   7.00000
  Number of symmetry independent centers:    1
  Number of basis sets to read;    2
  The basis set is "6-311G**" from the basis set library.
  Basis set file used for this atomic type with Z =   7 :
     "/zhome/9a/4/124800/source/dalton/build-mlcc/basis/6-311G**"

  Info about the basis set file: your basis has no documentation.
  Basis set: 6-311G**                                                                        

  Atomic type no.    2
  --------------------
  Nuclear charge:   1.00000
  Number of symmetry independent centers:    3
  Number of basis sets to read;    2
  The basis set is "6-311G**" from the basis set library.
  Basis set file used for this atomic type with Z =   1 :
     "/zhome/9a/4/124800/source/dalton/build-mlcc/basis/6-311G**"

  Info about the basis set file: your basis has no documentation.
  Basis set: 6-311G**                                                                        

  Atomic type no.    3
  --------------------
  Nuclear charge:   8.00000
  Number of symmetry independent centers:    4
  Number of basis sets to read;    2
  The basis set is "6-311G**" from the basis set library.
  Basis set file used for this atomic type with Z =   8 :
     "/zhome/9a/4/124800/source/dalton/build-mlcc/basis/6-311G**"

  Info about the basis set file: your basis has no documentation.
  Basis set: 6-311G**                                                                        

  Atomic type no.    4
  --------------------
  Nuclear charge:   1.00000
  Number of symmetry independent centers:    8
  Number of basis sets to read;    2
  The basis set is "6-311G**" from the basis set library.
  Basis set file used for this atomic type with Z =   1 :
     "/zhome/9a/4/124800/source/dalton/build-mlcc/basis/6-311G**"

  Info about the basis set file: your basis has no documentation.
  Basis set: 6-311G**                                                                        


                         SYMGRP: Point group information
                         -------------------------------

@    Point group: C1 


                                 Isotopic Masses
                                 ---------------

                           N          14.003074
                           H           1.007825
                           H           1.007825
                           H           1.007825
                           O          15.994915
                           O          15.994915
                           O          15.994915
                           O          15.994915
                           H           1.007825
                           H           1.007825
                           H           1.007825
                           H           1.007825
                           H           1.007825
                           H           1.007825
                           H           1.007825
                           H           1.007825

                       Total mass:    89.068809 amu
                       Natural abundance:  98.514 %

 Center-of-mass coordinates (a.u.):   -0.053048    0.329290    0.369317


  Atoms and basis sets
  --------------------

  Number of atom types :    4
  Total number of atoms:   16

  label    atoms   charge   prim   cont     basis
  ----------------------------------------------------------------------
  N           1    7.0000    31    18      [11s5p1d|4s3p1d]                                   
  H           3    1.0000     8     6      [5s1p|3s1p]                                        
  O           4    8.0000    31    18      [11s5p1d|4s3p1d]                                   
  H           8    1.0000     8     6      [5s1p|3s1p]                                        
  ----------------------------------------------------------------------
  total:     16   50.0000   243   156
  ----------------------------------------------------------------------
  Spherical harmonic basis used.

  Threshold for neglecting AO integrals:  1.00D-12


  Cartesian Coordinates (a.u.)
  ----------------------------

  Total number of coordinates:   48
  N       :     1  x   0.0000000000    2  y   0.0000000000    3  z   0.0000000000
  H       :     4  x   0.3465020720    5  y  -1.8463172262    6  z   0.0293625645
  H       :     7  x  -0.0593714154    8  y   0.9477807996    9  z   1.6772944524
  H       :    10  x  -1.7263725296   11  y   0.3026774334   12  z  -0.6729087964
  O       :    13  x  -5.7688708767   14  y   1.5339454977   15  z  -0.9397664711
  O       :    16  x   2.9817610581   17  y  -5.2221655498   18  z  -1.1949154028
  O       :    19  x   4.9133049325   20  y   1.5914347459   21  z  -1.4232132160
  O       :    22  x  -2.2111212957   23  y   3.6693511368   24  z   5.1132965381
  H       :    25  x  -6.2900743495   26  y   2.5469766507   27  z  -2.3957664354
  H       :    28  x  -6.1120753766   29  y   2.3797132119   30  z   0.5822321780
  H       :    31  x   4.2977531035   32  y  -5.2504641986   33  z   0.1331576617
  H       :    34  x   3.1826294966   35  y  -6.9378308912   36  z  -1.9762869199
  H       :    37  x   5.5056849398   38  y   2.0430906281   39  z   0.3028040451
  H       :    40  x   3.0883775164   41  y   0.9258316307   42  z  -1.0217919233
  H       :    43  x  -4.0061513548   44  y   4.2453188727   45  z   4.7926629270
  H       :    46  x  -1.5672689282   47  y   4.7872394130   48  z   6.5031541982


   Interatomic separations (in Angstrom):
   --------------------------------------

            N           H           H           H           O           O     
            ------      ------      ------      ------      ------      ------
 N     :    0.000000
 H     :    0.994207    0.000000
 H     :    1.019972    1.729964    0.000000
 H     :    0.993499    1.623132    1.562508    0.000000
 O     :    3.197738    3.732976    3.338055    2.240678    0.000000
 O     :    3.244410    2.357055    3.944636    3.851120    5.851745    0.000000
 O     :    2.834867    3.120971    3.119676    3.601095    5.658632    3.749628
 O     :    3.530012    4.193889    2.583939    3.551786    3.883494    6.390100
 H     :    3.808305    4.402882    4.029013    2.841464    0.978308    6.432683
 H     :    3.484522    4.094827    3.341988    2.652432    0.939136    6.342287
 H     :    3.591230    2.760428    4.091711    4.356553    6.448938    0.989493
 H     :    4.172398    3.261628    4.908589    4.680214    6.545020    1.003262
 H     :    3.111745    3.422080    3.088273    3.970018    6.008406    4.146444
 H     :    1.789785    2.136960    2.194259    2.575732    4.698288    3.255159
 H     :    3.996658    4.695763    3.181951    3.764763    3.482914    6.986648
 H     :    4.352945    5.008392    3.359509    4.478743    4.839425    7.102460

            O           O           H           H           H           H     
            ------      ------      ------      ------      ------      ------
 O     :    0.000000
 O     :    5.233270    0.000000
 H     :    5.972313    4.560869    0.000000
 H     :    5.944764    3.236694    1.581181    0.000000
 H     :    3.727330    6.410045    7.085792    6.834090    0.000000
 H     :    4.614762    7.329955    7.097086    7.094808    1.546471    0.000000
 H     :    0.994803    4.888368    6.408861    6.152211    3.913187    5.054897
 H     :    1.049657    4.529055    5.088673    5.001634    3.386037    4.192110
 H     :    5.921985    1.011916    4.091268    2.679703    7.116120    7.894503
 H     :    5.675738    1.003475    5.461418    4.150206    7.014959    8.059140

            H           H           H           H     
            ------      ------      ------      ------
 H     :    0.000000
 H     :    1.573908    0.000000
 H     :    5.686714    5.162102    0.000000
 H     :    5.184894    5.108968    1.602246    0.000000


  Max    interatomic separation is    8.0591 Angstrom (   15.2296 Bohr)
  between atoms   16 and   12, "H     " and "H     ".

  Min HX interatomic separation is    0.9391 Angstrom (    1.7747 Bohr)

  Min YX interatomic separation is    2.8349 Angstrom (    5.3571 Bohr)


  Bond distances (Angstrom):
  --------------------------

                  atom 1     atom 2       distance
                  ------     ------       --------
  bond distance:  H          N            0.994207
  bond distance:  H          N            1.019972
  bond distance:  H          N            0.993499
  bond distance:  H          O            0.978308
  bond distance:  H          O            0.939136
  bond distance:  H          O            0.989493
  bond distance:  H          O            1.003262
  bond distance:  H          O            0.994803
  bond distance:  H          O            1.049657
  bond distance:  H          O            1.011916
  bond distance:  H          O            1.003475


  Bond angles (degrees):
  ----------------------

                  atom 1     atom 2     atom 3         angle
                  ------     ------     ------         -----
  bond angle:     H          N          H            118.379
  bond angle:     H          N          H            109.489
  bond angle:     H          N          H            101.788
  bond angle:     H          O          H            111.085
  bond angle:     H          O          H            101.798
  bond angle:     H          O          H            100.645
  bond angle:     H          O          H            105.311




 Principal moments of inertia (u*A**2) and principal axes
 --------------------------------------------------------

   IA     262.924494          0.761375   -0.545215   -0.350783
   IB     579.384553          0.645913    0.591433    0.482705
   IC     682.127723         -0.055714   -0.594095    0.802463


 Rotational constants
 --------------------

               A                   B                   C

           1922.1450            872.2687            740.8862 MHz
            0.064116            0.029096            0.024713 cm-1


@  Nuclear repulsion energy :  177.152037861322 Hartree


                     .---------------------------------------.
                     | Starting in Integral Section (HERMIT) |
                     `---------------------------------------'



 ***************************************************************************************
 ****************** Output from **INTEGRALS input processing (HERMIT) ******************
 ***************************************************************************************



    *************************************************************************
    ****************** Output from HERMIT input processing ******************
    *************************************************************************


 Default print level:        1

 * Nuclear model: Point charge

 Calculation of one- and two-electron Hamiltonian integrals.

 The following one-electron property integrals are calculated as requested:
          - overlap integrals
          - dipole length integrals

 Center of mass  (bohr):     -0.053047664029      0.329290358461      0.369317470972
 Operator center (bohr):      0.000000000000      0.000000000000      0.000000000000
 Gauge origin    (bohr):      0.000000000000      0.000000000000      0.000000000000
 Dipole origin   (bohr):      0.000000000000      0.000000000000      0.000000000000
 
  *********************************** 
  QMMM electrostatic potential: 
  Multipole order                                    0
  Isotropic polarization  
  *********************************** 
 
  ---------------- 
  QMMM information 
  ---------------- 
 
  MM coordinates in au 
  -------------------- 
     1     -7.271298      3.566376     10.840539
     2     -8.740259      3.434645      9.719366
     3     -7.897759      4.249378     12.448786
     4     -2.065457    -10.247121      4.813195
     5     -1.315658    -10.617241      6.558090
     6     -1.922413     -8.478833      4.448147
     7      1.158032      2.388249    -11.603846
     8      1.477358      0.808527    -12.545393
     9      2.774040      2.663308    -10.482029
    10     -4.619774      8.001643      9.386417
    11     -5.562838      6.470891      9.537792
    12     -5.778119      9.443135      9.923167
    13     -0.680354     -5.474385      3.322951
    14      0.687252     -5.488288      2.004565
    15     -0.271996     -4.414223      4.709012
    16    -11.138989      2.881604      0.762486
    17    -10.259805      4.381033      0.090805
    18    -11.221617      1.524108     -0.581773
    19     -6.991422      4.753192     -5.637958
    20     -5.056563      4.595933     -5.828862
    21     -7.888204      3.170717     -6.402362
    22      6.510118     -9.353655    -10.768151
    23      6.788170     -7.846923     -9.796068
    24      6.189692     -8.817109    -12.473581
    25     -8.644365     -7.948309     -9.520510
    26     -9.155339     -6.520196    -10.570353
    27    -10.284918     -8.683713     -8.983584
    28      3.430594      3.198951     -7.304270
    29      4.173454      4.332813     -6.039529
    30      3.025276      1.594054     -6.423011
    31      1.924316     -1.498451     -5.473469
    32      0.152473     -2.036669     -5.741443
    33      2.760451     -2.674767     -4.230632
    34     10.486226     -7.278371      0.398010
    35     11.899362     -6.699213     -0.728612
    36      9.577419     -8.456959     -0.690897
    37      4.291547      6.379217     -3.092799
    38      6.038231      7.082098     -2.636138
    39      4.385756      4.670651     -2.374346
    40     -5.949795     10.599092      2.450593
    41     -4.662680     10.782953      3.765036
    42     -5.265652     10.854334      0.753642
    43    -10.901494      3.902987      7.456963
    44    -11.606093      5.541265      8.103722
    45    -12.187679      3.141626      6.242281
    46    -10.640834     -0.903684     -3.370398
    47    -12.279580     -1.528014     -3.972312
    48     -9.622776     -2.246947     -2.618656
    49     -1.521978     -9.967742    -10.910789
    50     -0.519185    -10.955697    -12.179334
    51     -2.397150    -11.261424     -9.698460
    52     -6.727115      5.212486      4.478989
    53     -7.092410      7.044548      4.013604
    54     -8.105245      4.545300      5.479567
    55      0.991490     -7.152296     -7.107453
    56      2.442284     -6.276580     -7.862247
    57     -0.062658     -7.893700     -8.495356
    58      5.330349     -8.754368      7.657229
    59      7.228558     -9.230707      7.081216
    60      4.696419     -7.679569      6.269667
    61     -7.603086     -5.850371      6.570296
    62     -7.003011     -4.503968      5.576368
    63     -8.372367     -6.950175      5.265166
    64      7.378851      6.310119    -11.686013
    65      6.400353      7.309039    -10.475066
    66      7.606040      4.731719    -10.724029
    67     -7.571212    -11.185538      9.911882
    68     -6.137821    -10.365741      9.051877
    69     -8.167111    -10.140471     11.403144
    70      9.515841    -11.371845      6.724932
    71     11.195437    -10.831311      6.019802
    72      9.992526    -12.345305      8.328059
    73      6.232419     -1.054601      6.075589
    74      7.151183     -1.578144      7.632744
    75      7.246561      0.369857      5.405456
    76      1.177640     10.228347     -4.198403
    77      1.371658      9.875049     -6.101457
    78      2.101816      8.699766     -3.513156
    79      8.118743     -1.176060     -5.038231
    80      6.956734     -2.396530     -5.871732
    81      7.010090     -0.539600     -3.802685
    82     -5.648866     -3.912523      1.911692
    83     -3.857332     -4.501518      2.245475
    84     -5.630619     -2.320272      1.037422
    85     11.363095      8.192715     10.015677
    86      9.789955      7.846695     10.909599
    87     12.670287      8.897486     11.043605
    88      7.967151      2.856336      3.315929
    89      7.165390      4.453610      3.818668
    90      9.644641      3.125239      2.333842
    91      9.177385      1.444100     -9.529547
    92     10.975677      1.742885     -9.065141
    93      8.426712      0.766307     -7.970489
    94      4.280502     -9.151123     -3.742176
    95      3.075382     -8.709674     -5.173222
    96      3.442624    -10.731458     -3.444464
    97     -9.247524      8.515718     -8.584638
    98     -8.935581      7.343931     -7.246731
    99    -10.655334      9.686715     -7.904605
   100     -9.610850      7.516824     -2.320720
   101     -8.436229      6.507395     -3.389868
   102     -8.618559      8.785770     -1.448451
   103     10.799437    -11.202519     -7.968261
   104      9.241828    -11.157994     -8.940069
   105     10.367461    -10.978275     -6.171025
   106      5.380424     -3.858964     -8.585980
   107      6.293177     -3.233726    -10.114154
   108      3.963774     -2.766693     -8.132792
   109     -8.494379     -5.719133     -1.925567
   110     -7.541825     -5.698617     -0.373657
   111     -7.298746     -6.469940     -3.204108
   112      2.938917     10.066458     -9.212647
   113      3.481025     11.802965    -10.026541
   114      1.819784      9.404086    -10.416114
   115     -0.818822      6.743679      0.693735
   116     -0.941860      5.743475      2.271878
   117     -2.090842      8.059223      0.807176
   118     -3.399460     10.520026     -2.214510
   119     -4.535838     10.065547     -3.640329
   120     -1.642571     10.400992     -3.185785
   121      9.155183    -10.563371     -3.399755
   122      9.176177    -12.286317     -2.472973
   123      7.356515    -10.331299     -3.890636
   124     -1.836014      5.045595     -5.078482
   125     -1.727680      5.158457     -3.140145
   126     -0.360626      4.083114     -5.559756
   127      6.493532      8.215118      4.176149
   128      4.836684      9.180955      3.652158
   129      7.633261      9.399175      5.022098
   130      8.333148     -2.553426     10.570899
   131      9.892442     -3.649562     10.566455
   132      8.990648     -0.994338     11.410849
   133    -10.000899     -9.600217      3.782319
   134     -8.599630    -10.454332      2.880196
   135    -11.203759     -9.101159      2.428319
   136      1.782666      6.406340      7.748251
   137      3.480004      6.573775      7.109737
   138      1.856905      4.902645      9.001958
   139     -8.588733      0.709953     -7.852466
   140     -8.915201     -0.257109     -6.269112
   141     -7.302251     -0.368684     -8.949711
   142      1.138216     -1.151293      6.946546
   143      0.029535      0.278959      6.423430
   144      2.846513     -0.564431      6.562433
   145      8.832688      8.321146     -0.459750
   146      8.067052      8.439638      1.254376
   147     10.407020      7.190077     -0.481162
   148     -4.559943     10.442343     -7.610553
   149     -3.629741      8.803575     -7.834034
   150     -6.304765      9.923621     -8.194688
   151      2.465333     11.022604      2.247330
   152      1.396736      9.568375      1.757596
   153      1.110583     11.855656      3.358897
   154     -2.639738     -1.991909     -7.071351
   155     -2.442284     -1.683755     -8.927155
   156     -2.959022     -3.798100     -6.884163
   157    -10.293145     -4.108947     10.845582
   158     -9.008003     -2.727003     11.276440
   159     -9.462669     -4.805751      9.325447
   160      5.796004     -5.489224      3.038838
   161      6.005147     -3.813857      3.926180
   162      7.575838     -6.019025      2.595174
   163      0.932848     11.695107      8.734448
   164      1.123877      9.792548      8.631838
   165      2.652015     12.423230      8.461226
   166     -1.230129      7.128461    -10.188859
   167     -0.597000      5.397296    -10.110706
   168     -2.472848      7.216352    -11.681376
   169     -3.687693     -5.815948     10.073739
   170     -4.885239     -6.232356      8.661492
   171     -2.966398     -7.430995     10.758689
   172     -5.840680     -1.885773    -11.522972
   173     -4.932043     -3.414711    -12.127820
   174     -5.629309     -0.352576    -12.741478
   175     -4.934073     -7.462277     -5.712026
   176     -4.095278     -9.079737     -5.966274
   177     -6.047485     -7.212055     -7.153585
 
  MM charges 
  ---------- 
     1     -0.674440
     2      0.337220
     3      0.337220
     4     -0.674440
     5      0.337220
     6      0.337220
     7     -0.674440
     8      0.337220
     9      0.337220
    10     -0.674440
    11      0.337220
    12      0.337220
    13     -0.674440
    14      0.337220
    15      0.337220
    16     -0.674440
    17      0.337220
    18      0.337220
    19     -0.674440
    20      0.337220
    21      0.337220
    22     -0.674440
    23      0.337220
    24      0.337220
    25     -0.674440
    26      0.337220
    27      0.337220
    28     -0.674440
    29      0.337220
    30      0.337220
    31     -0.674440
    32      0.337220
    33      0.337220
    34     -0.674440
    35      0.337220
    36      0.337220
    37     -0.674440
    38      0.337220
    39      0.337220
    40     -0.674440
    41      0.337220
    42      0.337220
    43     -0.674440
    44      0.337220
    45      0.337220
    46     -0.674440
    47      0.337220
    48      0.337220
    49     -0.674440
    50      0.337220
    51      0.337220
    52     -0.674440
    53      0.337220
    54      0.337220
    55     -0.674440
    56      0.337220
    57      0.337220
    58     -0.674440
    59      0.337220
    60      0.337220
    61     -0.674440
    62      0.337220
    63      0.337220
    64     -0.674440
    65      0.337220
    66      0.337220
    67     -0.674440
    68      0.337220
    69      0.337220
    70     -0.674440
    71      0.337220
    72      0.337220
    73     -0.674440
    74      0.337220
    75      0.337220
    76     -0.674440
    77      0.337220
    78      0.337220
    79     -0.674440
    80      0.337220
    81      0.337220
    82     -0.674440
    83      0.337220
    84      0.337220
    85     -0.674440
    86      0.337220
    87      0.337220
    88     -0.674440
    89      0.337220
    90      0.337220
    91     -0.674440
    92      0.337220
    93      0.337220
    94     -0.674440
    95      0.337220
    96      0.337220
    97     -0.674440
    98      0.337220
    99      0.337220
   100     -0.674440
   101      0.337220
   102      0.337220
   103     -0.674440
   104      0.337220
   105      0.337220
   106     -0.674440
   107      0.337220
   108      0.337220
   109     -0.674440
   110      0.337220
   111      0.337220
   112     -0.674440
   113      0.337220
   114      0.337220
   115     -0.674440
   116      0.337220
   117      0.337220
   118     -0.674440
   119      0.337220
   120      0.337220
   121     -0.674440
   122      0.337220
   123      0.337220
   124     -0.674440
   125      0.337220
   126      0.337220
   127     -0.674440
   128      0.337220
   129      0.337220
   130     -0.674440
   131      0.337220
   132      0.337220
   133     -0.674440
   134      0.337220
   135      0.337220
   136     -0.674440
   137      0.337220
   138      0.337220
   139     -0.674440
   140      0.337220
   141      0.337220
   142     -0.674440
   143      0.337220
   144      0.337220
   145     -0.674440
   146      0.337220
   147      0.337220
   148     -0.674440
   149      0.337220
   150      0.337220
   151     -0.674440
   152      0.337220
   153      0.337220
   154     -0.674440
   155      0.337220
   156      0.337220
   157     -0.674440
   158      0.337220
   159      0.337220
   160     -0.674440
   161      0.337220
   162      0.337220
   163     -0.674440
   164      0.337220
   165      0.337220
   166     -0.674440
   167      0.337220
   168      0.337220
   169     -0.674440
   170      0.337220
   171      0.337220
   172     -0.674440
   173      0.337220
   174      0.337220
   175     -0.674440
   176      0.337220
   177      0.337220
 
  MM isotropic polarizabilities in au 
  ----------------------------------- 
     1      5.739350
     2      2.308390
     3      2.308390
     4      5.739350
     5      2.308390
     6      2.308390
     7      5.739350
     8      2.308390
     9      2.308390
    10      5.739350
    11      2.308390
    12      2.308390
    13      5.739350
    14      2.308390
    15      2.308390
    16      5.739350
    17      2.308390
    18      2.308390
    19      5.739350
    20      2.308390
    21      2.308390
    22      5.739350
    23      2.308390
    24      2.308390
    25      5.739350
    26      2.308390
    27      2.308390
    28      5.739350
    29      2.308390
    30      2.308390
    31      5.739350
    32      2.308390
    33      2.308390
    34      5.739350
    35      2.308390
    36      2.308390
    37      5.739350
    38      2.308390
    39      2.308390
    40      5.739350
    41      2.308390
    42      2.308390
    43      5.739350
    44      2.308390
    45      2.308390
    46      5.739350
    47      2.308390
    48      2.308390
    49      5.739350
    50      2.308390
    51      2.308390
    52      5.739350
    53      2.308390
    54      2.308390
    55      5.739350
    56      2.308390
    57      2.308390
    58      5.739350
    59      2.308390
    60      2.308390
    61      5.739350
    62      2.308390
    63      2.308390
    64      5.739350
    65      2.308390
    66      2.308390
    67      5.739350
    68      2.308390
    69      2.308390
    70      5.739350
    71      2.308390
    72      2.308390
    73      5.739350
    74      2.308390
    75      2.308390
    76      5.739350
    77      2.308390
    78      2.308390
    79      5.739350
    80      2.308390
    81      2.308390
    82      5.739350
    83      2.308390
    84      2.308390
    85      5.739350
    86      2.308390
    87      2.308390
    88      5.739350
    89      2.308390
    90      2.308390
    91      5.739350
    92      2.308390
    93      2.308390
    94      5.739350
    95      2.308390
    96      2.308390
    97      5.739350
    98      2.308390
    99      2.308390
   100      5.739350
   101      2.308390
   102      2.308390
   103      5.739350
   104      2.308390
   105      2.308390
   106      5.739350
   107      2.308390
   108      2.308390
   109      5.739350
   110      2.308390
   111      2.308390
   112      5.739350
   113      2.308390
   114      2.308390
   115      5.739350
   116      2.308390
   117      2.308390
   118      5.739350
   119      2.308390
   120      2.308390
   121      5.739350
   122      2.308390
   123      2.308390
   124      5.739350
   125      2.308390
   126      2.308390
   127      5.739350
   128      2.308390
   129      2.308390
   130      5.739350
   131      2.308390
   132      2.308390
   133      5.739350
   134      2.308390
   135      2.308390
   136      5.739350
   137      2.308390
   138      2.308390
   139      5.739350
   140      2.308390
   141      2.308390
   142      5.739350
   143      2.308390
   144      2.308390
   145      5.739350
   146      2.308390
   147      2.308390
   148      5.739350
   149      2.308390
   150      2.308390
   151      5.739350
   152      2.308390
   153      2.308390
   154      5.739350
   155      2.308390
   156      2.308390
   157      5.739350
   158      2.308390
   159      2.308390
   160      5.739350
   161      2.308390
   162      2.308390
   163      5.739350
   164      2.308390
   165      2.308390
   166      5.739350
   167      2.308390
   168      2.308390
   169      5.739350
   170      2.308390
   171      2.308390
   172      5.739350
   173      2.308390
   174      2.308390
   175      5.739350
   176      2.308390
   177      2.308390


     ************************************************************************
     ************************** Output from HERINT **************************
     ************************************************************************



                      Nuclear contribution to dipole moments
                      --------------------------------------

                 au               Debye          C m (/(10**-30)

      x     -4.01977628       -10.21725152       -34.08108258
      y     16.72454297        42.50954534       141.79658028
      z     20.39712554        51.84431852       172.93403199


  Time used in HUCKEL     is       0.47 seconds
  Time used in OVERLAP    is       0.14 seconds
  Time used in POPOVLP    is       0.23 seconds
  Time used in DIPLEN     is       0.48 seconds
  Time used in QUADRUP    is       0.43 seconds
  Time used in KINENE     is       0.24 seconds

 Threshold for neglecting two-electron integrals:  1.00D-12
 HERMIT - Number of two-electron integrals written:    25272771 ( 33.7% )
 HERMIT - Megabytes written:                            289.390

  Time used in TWOINT     is      14.74 seconds
  Total CPU  time used in HERMIT:  16.80 seconds
  Total wall time used in HERMIT:   5.54 seconds


                        .----------------------------------.
                        | End of Integral Section (HERMIT) |
                        `----------------------------------'



                   .--------------------------------------------.
                   | Starting in Wave Function Section (SIRIUS) |
                   `--------------------------------------------'

NCCEXCI for singlet:   15
 CCSD_INPUT: core-val requested
 Requested number of core orbs per sym
                     1
 Indices of requested core orbs
                     1

 *** Output from Huckel module :

     Using EWMO model:          T
     Using EHT  model:          F
     Number of Huckel orbitals each symmetry:   36

 EWMO - Energy Weighted Maximum Overlap - is a Huckel type method,
        which normally is better than Extended Huckel Theory.
 Reference: Linderberg and Ohrn, Propagators in Quantum Chemistry (Wiley, 1973)

 Huckel EWMO eigenvalues for symmetry :  1
          -20.684983     -20.684417     -20.684226     -20.684055     -15.674433
           -1.698448      -1.615036      -1.582155      -1.573287      -1.470074
           -0.817736      -0.798385      -0.773320      -0.765332      -0.757352
           -0.735721      -0.696169      -0.684549      -0.664054      -0.651344
           -0.622144      -0.615346      -0.609093      -0.595545      -0.512240
           -0.258685      -0.247055      -0.233359      -0.229012      -0.184988
           -0.183289      -0.180924      -0.166462      -0.164613      -0.142286
           -0.135684

 **********************************************************************
 *SIRIUS* a direct, restricted step, second order MCSCF program       *
 **********************************************************************

 
     Date and time (Linux)  : Fri Dec 28 01:15:54 2018
     Host name              : n-62-23-17                              

 Title lines from ".mol" input file:
                                                                             
                                                                             

 Print level on unit LUPRI =   2 is   0
 Print level on unit LUW4  =   2 is  11

@    (Integral direct) CC calculation.

@    This is a combination run starting with
@              a restricted, closed shell Hartree-Fock calculation


 Initial molecular orbitals are obtained according to
 ".MOSTART EWMO  " input option

@    QM part is embedded in an environment :

@         Model: QMMM

     Wave function specification
     ============================

     For the specification of the Coupled Cluster: see later.

@    Wave function type        --- CC ---
@    Number of closed shell electrons          50
@    Number of electrons in active shells       0
@    Total charge of the molecule               0

@    Spin multiplicity and 2 M_S                1         0
@    Total number of symmetries                 1 (point group: C1 )
@    Reference state symmetry                   1 (irrep name : A  )

     Orbital specifications
     ======================
@    Abelian symmetry species          All |    1
@                                          |  A  
                                       --- |  ---
@    Occupied SCF orbitals              25 |   25
@    Secondary orbitals                131 |  131
@    Total number of orbitals          156 |  156
@    Number of basis functions         156 |  156

     Optimization information
     ========================
@    Number of configurations                 1
@    Number of orbital rotations           3275
     ------------------------------------------
@    Total number of variables             3276

     Maximum number of Fock   iterations      0
     Maximum number of DIIS   iterations     60
     Maximum number of QC-SCF iterations     60
     Threshold for SCF convergence     1.00D-07


 Changes of defaults for CC:
 ---------------------------


 -Implicit frozen core calculation
 -Excitation energies calculated
 -One-photon absorption strengths will be calculated
 -Oscillator strengths calculated
  
* Read MO coefficients from SIRIUS.RST with label "NEWORB  " and header info: 28Dec18  REORTHO 


 ***********************************************
 ***** DIIS acceleration of SCF iterations *****
 ***********************************************

 C1-DIIS algorithm; max error vectors =    8
 -----------------------------------------------------------------------------

 *** DIIS iteration number    1
 RDSUPM called. NFMAT, ISYMDM(1:NFMAT)                     1
                     1

Calculating AOSUPINT
     (Precalculated two-electron integrals are transformed to P-supermatrix elements.
      Threshold for discarding integrals :  1.00D-12 )
  CPU  time used in FORMSUP    is   6.29 seconds
  WALL time used in FORMSUP    is   8.39 seconds

 ITDIIS, energy, error norm, change in energy, scr.thr., difden:
@ DIIS iter.   1    -359.890106320        3.81345D+00   -3.60D+02  -20    F

 (DIIS_RED) Control Parameters C2DIIS =         F NEVC =    1


 (DIIS_RED) B matrix:

               Column   1
       1      14.54241703
    ==== End of matrix output ====

 DIIS C vector; C2DIIS = F, LAMBDA = -1.45D+01
    1.000000
* Read MO coefficients from SIRIUS.RST with label "NEWORB  " and header info: 28Dec18  DIIS   1
      Virial theorem: -V/T =      1.998362
@      MULPOP N      -0.37; H       0.17; H       0.16; H       0.16; O      -0.62; O      -0.61; O      -0.84; O      -0.62; H       0.32; H       0.33; 
@             H       0.32; H       0.31; H       0.32; H       0.32; H       0.32; H       0.32; 
   1  Level shift: doubly occupied orbital energies shifted by -2.00D-01

 DIIS Fock eigenvalues in symmetry 1
      -20.71919      -20.71718      -20.68974      -20.55689      -15.99846
       -1.55019       -1.53771       -1.50561       -1.47843       -1.45449
       -0.97929       -0.94850       -0.94603       -0.91011       -0.88524
       -0.87219       -0.78904       -0.78265       -0.77472       -0.75699
       -0.74824       -0.74101       -0.72271       -0.71255       -0.68501
        0.10777        0.14596        0.16725        0.18166        0.20600
        0.25048        0.26046        0.26711        0.29154        0.33024
        0.34586        0.39695        0.44893        0.49937        0.53193
        0.53890        0.56782        0.57642        0.58120        0.58454
        0.60497        0.61266        0.82173        0.86857        0.89357
        0.95445        0.97283        0.97569        0.98803        1.01627
        1.03926        1.07109        1.08705        1.10015        1.12047
        1.15245        1.16395        1.17979        1.22722        1.32536
        1.35253        1.38733        1.40230        1.41320        1.43864
        1.46105        1.48011        1.48794        1.50419        1.53290
        1.55690        1.61428        1.64504        1.66895        1.67369
        1.70425        1.72914        1.79202        1.82333        1.83688
        1.86597        1.87770        1.91844        1.97018        2.11501
        2.15777        2.16340        2.19856        2.24685        2.25403
        2.31667        2.31931        2.34070        2.36978        2.45781
        2.54817        2.56264        2.57802        2.58798        2.60739
        2.65851        2.71605        2.78930        2.80203        2.81299
        2.84553        2.88411        2.92031        3.12668        3.27617
        3.38318        3.42798        3.43275        3.43284        3.46779
        3.47820        3.49000        3.52059        3.54057        3.63993
        3.64147        3.64794        3.67485        3.94944        3.97199
        3.98562        4.04254        4.18643        4.19251        4.20683
        4.21657        4.38945        5.01244        5.15191        5.31726
        5.32654        5.35965        5.40784        5.75223        5.76926
        5.78966        5.80522        6.03392        6.05472        6.13154
        6.20837       36.80771       51.54232       51.56014       51.58679
       51.72494
 Time used in FCKEIG, thr_jaco:   4.24D-01  4.30D-02  1.67D-04
 CPU and wall times used in FCKEIG, THR_FCKEIG:   4.24D-01  4.30D-02  3.81D-02
 -----------------------------------------------------------------------------

 *** DIIS iteration number    2
 RDSUPM called. NFMAT, ISYMDM(1:NFMAT)                     1
                     1

 ITDIIS, energy, error norm, change in energy, scr.thr., difden:
@ DIIS iter.   2    -360.683401519        9.54636D-01   -7.93D-01  -20    F

 (DIIS_RED) Control Parameters C2DIIS =         F NEVC =    2


 (DIIS_RED) B matrix:

               Column   1     Column   2
       1      14.54241703
       2       0.84882582     0.91132958
    ==== End of matrix output ====

 DIIS C vector; C2DIIS = F, LAMBDA = -9.11D-01
    0.004544    0.995456
* Read MO coefficients from SIRIUS.RST with label "NEWORB  " and header info: 28Dec18  DIIS   2
      Virial theorem: -V/T =      2.003986
@      MULPOP N      -0.69; H       0.23; H       0.23; H       0.24; O      -0.54; O      -0.58; O      -0.64; O      -0.61; H       0.29; H       0.28; 
@             H       0.31; H       0.29; H       0.23; H       0.32; H       0.35; H       0.28; 
   2  Level shift: doubly occupied orbital energies shifted by -1.00D-01

 DIIS Fock eigenvalues in symmetry 1
      -20.75967      -20.67368      -20.65124      -20.64770      -15.52508
       -1.45400       -1.43401       -1.43085       -1.39766       -1.21754
       -0.81552       -0.80424       -0.78597       -0.75923       -0.74439
       -0.72860       -0.70093       -0.68517       -0.66539       -0.65837
       -0.65199       -0.62709       -0.60876       -0.59979       -0.51354
        0.14519        0.17452        0.18596        0.20621        0.24703
        0.26671        0.27865        0.30772        0.32022        0.36123
        0.36532        0.45334        0.51133        0.54767        0.56051
        0.57484        0.60141        0.60894        0.62377        0.62977
        0.64313        0.66458        0.90103        0.92910        0.95070
        0.97598        0.98973        0.99574        1.01918        1.04830
        1.06316        1.09701        1.10404        1.11714        1.12609
        1.16290        1.18803        1.24543        1.32615        1.36803
        1.40541        1.40774        1.42880        1.44492        1.48689
        1.51891        1.53688        1.54436        1.54770        1.58368
        1.60526        1.61008        1.68350        1.71795        1.74071
        1.76099        1.80364        1.86953        1.89097        1.90926
        1.92435        1.93980        1.99264        2.03956        2.20960
        2.22726        2.24874        2.27089        2.28326        2.30281
        2.37857        2.38034        2.40623        2.46583        2.53419
        2.61128        2.62245        2.63869        2.65410        2.67696
        2.74376        2.77968        2.85418        2.85802        2.87559
        2.95841        3.02205        3.06851        3.27910        3.39302
        3.44038        3.44848        3.45336        3.45520        3.47524
        3.48796        3.51252        3.56870        3.58552        3.60560
        3.66597        3.66864        3.68237        3.90561        3.96954
        4.00693        4.07446        4.15895        4.21232        4.23293
        4.23666        4.56439        5.23322        5.25030        5.30637
        5.32398        5.37179        5.39902        5.65477        5.75197
        5.77338        5.80508        6.00684        6.04810        6.06862
        6.23991       37.17413       51.42743       51.48896       51.50512
       51.55708
 Time used in FCKEIG, thr_jaco:   3.04D-01  3.10D-02  4.17D-05
 CPU and wall times used in FCKEIG, THR_FCKEIG:   3.04D-01  3.10D-02  9.55D-03
 -----------------------------------------------------------------------------

 *** DIIS iteration number    3
 RDSUPM called. NFMAT, ISYMDM(1:NFMAT)                     1
                     1

 ITDIIS, energy, error norm, change in energy, scr.thr., difden:
@ DIIS iter.   3    -360.744379409        3.54325D-01   -6.10D-02  -20    F

 (DIIS_RED) Control Parameters C2DIIS =         F NEVC =    3


 (DIIS_RED) B matrix:

               Column   1     Column   2     Column   3
       1      14.54241703
       2       0.84882582     0.91132958
       3       0.67722258     0.05644915     0.12554637
    ==== End of matrix output ====

 DIIS C vector; C2DIIS = F, LAMBDA = -9.59D-02
   -0.042992    0.085982    0.957010
* Read MO coefficients from SIRIUS.RST with label "NEWORB  " and header info: 28Dec18  DIIS   3
      Virial theorem: -V/T =      2.001922
@      MULPOP N      -0.61; H       0.21; H       0.21; H       0.21; O      -0.57; O      -0.64; O      -0.73; O      -0.67; H       0.31; H       0.29; 
@             H       0.35; H       0.32; H       0.29; H       0.36; H       0.39; H       0.30; 
   3  Level shift: doubly occupied orbital energies shifted by -5.00D-02

 DIIS Fock eigenvalues in symmetry 1
      -20.58908      -20.57751      -20.56416      -20.56159      -15.60731
       -1.37384       -1.36683       -1.35491       -1.33487       -1.20198
       -0.75356       -0.72611       -0.71734       -0.70941       -0.69529
       -0.67727       -0.62372       -0.62033       -0.60350       -0.58705
       -0.55458       -0.54993       -0.54074       -0.52751       -0.48454
        0.15010        0.17915        0.19198        0.21049        0.24874
        0.26995        0.28278        0.30908        0.32523        0.36446
        0.36871        0.45993        0.51462        0.55329        0.57167
        0.58331        0.61083        0.61987        0.63154        0.63679
        0.65051        0.66743        0.90889        0.94301        0.95230
        0.98583        1.00565        1.01216        1.02737        1.04801
        1.07450        1.10811        1.11821        1.13273        1.14069
        1.17588        1.19758        1.24516        1.32743        1.37745
        1.41203        1.42007        1.43529        1.45518        1.49750
        1.52963        1.54862        1.55731        1.55923        1.59328
        1.61533        1.62866        1.69778        1.72897        1.74788
        1.76884        1.80825        1.87556        1.89819        1.91425
        1.93221        1.94529        1.99767        2.04713        2.21714
        2.22527        2.25963        2.27214        2.29550        2.31507
        2.39172        2.39187        2.41809        2.47292        2.54056
        2.62178        2.63579        2.64475        2.66227        2.68482
        2.74851        2.78794        2.86208        2.86857        2.88316
        2.95294        3.00452        3.04777        3.25643        3.41921
        3.46418        3.46935        3.47533        3.47717        3.50264
        3.50945        3.53288        3.54882        3.59019        3.66334
        3.68711        3.68911        3.69985        3.96127        3.99006
        4.02617        4.09198        4.20996        4.23406        4.25382
        4.25796        4.51320        5.18528        5.31196        5.33524
        5.34878        5.36776        5.39560        5.73673        5.77780
        5.79613        5.82635        6.07227        6.09107        6.09341
        6.26031       37.04612       51.52286       51.53834       51.57487
       51.58161
 Time used in FCKEIG, thr_jaco:   2.49D-01  2.60D-02  1.55D-05
 CPU and wall times used in FCKEIG, THR_FCKEIG:   2.49D-01  2.60D-02  3.54D-03
 -----------------------------------------------------------------------------

 *** DIIS iteration number    4
 RDSUPM called. NFMAT, ISYMDM(1:NFMAT)                     1
                     1

 ITDIIS, energy, error norm, change in energy, scr.thr., difden:
@ DIIS iter.   4    -360.753437669        1.14643D-01   -9.06D-03  -20    F

 (DIIS_RED) Control Parameters C2DIIS =         F NEVC =    4


 (DIIS_RED) B matrix:

               Column   1     Column   2     Column   3     Column   4
       1      14.54241703
       2       0.84882582     0.91132958
       3       0.67722258     0.05644915     0.12554637
       4       0.01610923     0.08516416    -0.00437148     0.01314293
    ==== End of matrix output ====

 DIIS C vector; C2DIIS = F, LAMBDA = -4.42D-03
   -0.000699   -0.093088    0.114944    0.978843
* Read MO coefficients from SIRIUS.RST with label "NEWORB  " and header info: 28Dec18  DIIS   4
      Virial theorem: -V/T =      2.002736
@      MULPOP N      -0.68; H       0.22; H       0.23; H       0.23; O      -0.58; O      -0.66; O      -0.72; O      -0.68; H       0.31; H       0.30; 
@             H       0.35; H       0.33; H       0.28; H       0.36; H       0.40; H       0.30; 
   4  Level shift: doubly occupied orbital energies shifted by -2.50D-02

 DIIS Fock eigenvalues in symmetry 1
      -20.57797      -20.57160      -20.55803      -20.54726      -15.55207
       -1.35163       -1.34476       -1.34273       -1.31347       -1.16634
       -0.73082       -0.70196       -0.69656       -0.67913       -0.67308
       -0.64520       -0.60628       -0.59587       -0.57799       -0.56337
       -0.53578       -0.52691       -0.51451       -0.50206       -0.44805
        0.15070        0.17831        0.19119        0.20982        0.25014
        0.26918        0.28267        0.31200        0.32784        0.36505
        0.36921        0.46352        0.51903        0.55563        0.57152
        0.58306        0.60992        0.61861        0.63009        0.63682
        0.64979        0.67002        0.91302        0.94650        0.95509
        0.98680        1.00590        1.01258        1.02908        1.05133
        1.07516        1.10765        1.11772        1.13076        1.13787
        1.17425        1.19784        1.24682        1.33224        1.37891
        1.41357        1.42020        1.43736        1.45571        1.49694
        1.52799        1.54688        1.55502        1.55745        1.59205
        1.61423        1.62661        1.69744        1.72784        1.74811
        1.76834        1.81173        1.87808        1.89848        1.91562
        1.93031        1.94727        2.00095        2.05025        2.21925
        2.22833        2.25772        2.28053        2.28993        2.31320
        2.38897        2.38932        2.41579        2.47725        2.54425
        2.62057        2.63425        2.64799        2.66193        2.68427
        2.75278        2.78673        2.86101        2.86928        2.88158
        2.95980        3.01430        3.05851        3.26714        3.42443
        3.46006        3.46809        3.47404        3.47577        3.49101
        3.50807        3.53073        3.56121        3.58956        3.65155
        3.68595        3.68716        3.69880        3.94965        3.98856
        4.02387        4.09049        4.20058        4.23200        4.25270
        4.25655        4.52824        5.20093        5.31198        5.32248
        5.34513        5.37033        5.39498        5.71718        5.77378
        5.79366        5.82400        6.06541        6.07393        6.08868
        6.25731       37.07593       51.51477       51.52901       51.53695
       51.57591
 Time used in FCKEIG, thr_jaco:   2.42D-01  2.50D-02  5.01D-06
 CPU and wall times used in FCKEIG, THR_FCKEIG:   2.42D-01  2.50D-02  1.15D-03
 -----------------------------------------------------------------------------

 *** DIIS iteration number    5
 RDSUPM called. NFMAT, ISYMDM(1:NFMAT)                     1
                     1

 ITDIIS, energy, error norm, change in energy, scr.thr., difden:
@ DIIS iter.   5    -360.754650777        2.62843D-02   -1.21D-03  -20    F

 (DIIS_RED) Control Parameters C2DIIS =         F NEVC =    5


 (DIIS_RED) B matrix:

               Column   1     Column   2     Column   3     Column   4     Column   5
       1      14.54241703
       2       0.84882582     0.91132958
       3       0.67722258     0.05644915     0.12554637
       4       0.01610923     0.08516416    -0.00437148     0.01314293
       5       0.01629055     0.00689692     0.00553932     0.00099181     0.00069086
    ==== End of matrix output ====

 DIIS C vector; C2DIIS = F, LAMBDA = -4.11D-04
    0.001470    0.003521   -0.060788   -0.100886    1.156683
* Read MO coefficients from SIRIUS.RST with label "NEWORB  " and header info: 28Dec18  DIIS   5
      Virial theorem: -V/T =      2.002377
@      MULPOP N      -0.68; H       0.22; H       0.22; H       0.23; O      -0.59; O      -0.67; O      -0.74; O      -0.69; H       0.32; H       0.30; 
@             H       0.36; H       0.33; H       0.29; H       0.37; H       0.41; H       0.30; 

 DIIS Fock eigenvalues in symmetry 1
      -20.54524      -20.54479      -20.53210      -20.52117      -15.52155
       -1.32643       -1.31908       -1.31461       -1.28808       -1.13973
       -0.70614       -0.67573       -0.67060       -0.65309       -0.64819
       -0.61881       -0.57891       -0.57083       -0.55292       -0.53842
       -0.50707       -0.50022       -0.48853       -0.47576       -0.42047
        0.15093        0.17815        0.19136        0.20970        0.25036
        0.26887        0.28269        0.31245        0.32860        0.36487
        0.36950        0.46436        0.51959        0.55599        0.57231
        0.58294        0.60981        0.61881        0.62979        0.63688
        0.64978        0.67043        0.91485        0.94791        0.95646
        0.98815        1.00699        1.01362        1.03008        1.05230
        1.07598        1.10760        1.11827        1.13138        1.13838
        1.17459        1.19806        1.24738        1.33309        1.37959
        1.41399        1.42075        1.43812        1.45662        1.49697
        1.52755        1.54671        1.55452        1.55801        1.59181
        1.61388        1.62814        1.69811        1.72780        1.74787
        1.76805        1.81209        1.87838        1.89828        1.91566
        1.92972        1.94770        2.00130        2.05087        2.21914
        2.22896        2.25729        2.28147        2.29102        2.31262
        2.38851        2.38916        2.41537        2.47815        2.54527
        2.62029        2.63446        2.64806        2.66165        2.68388
        2.75301        2.78605        2.86051        2.86941        2.88091
        2.96101        3.01555        3.05983        3.26860        3.42691
        3.46204        3.46875        3.47455        3.47665        3.49413
        3.50851        3.53095        3.56299        3.58970        3.65470
        3.68636        3.68744        3.69892        3.95289        3.98902
        4.02406        4.09048        4.20382        4.23233        4.25290
        4.25702        4.53127        5.20339        5.31496        5.32603
        5.34594        5.37221        5.39591        5.72170        5.77443
        5.79421        5.82457        6.06739        6.07689        6.08898
        6.25744       37.08132       51.51644       51.53094       51.54381
       51.57683
 Time used in FCKEIG, thr_jaco:   2.41D-01  2.50D-02  1.15D-06
 CPU and wall times used in FCKEIG, THR_FCKEIG:   2.41D-01  2.50D-02  2.63D-04
 -----------------------------------------------------------------------------

 *** DIIS iteration number    6
 RDSUPM called. NFMAT, ISYMDM(1:NFMAT)                     1
                     1

 ITDIIS, energy, error norm, change in energy, scr.thr., difden:
@ DIIS iter.   6    -360.754754540        9.21248D-03   -1.04D-04  -20    F

 (DIIS_RED) Control Parameters C2DIIS =         F NEVC =    6


 (DIIS_RED) B matrix:

               Column   1     Column   2     Column   3     Column   4     Column   5     Column   6
       1      14.54241703
       2       0.84882582     0.91132958
       3       0.67722258     0.05644915     0.12554637
       4       0.01610923     0.08516416    -0.00437148     0.01314293
       5       0.01629055     0.00689692     0.00553932     0.00099181     0.00069086
       6      -0.00190150    -0.00032948     0.00072208     0.00028814     0.00008090     0.00008487
    ==== End of matrix output ====

 DIIS C vector; C2DIIS = F, LAMBDA = -4.39D-05
    0.000608    0.009152   -0.023865   -0.098787    0.181956    0.930937
* Read MO coefficients from SIRIUS.RST with label "NEWORB  " and header info: 28Dec18  DIIS   6
      Virial theorem: -V/T =      2.002523
@      MULPOP N      -0.68; H       0.22; H       0.22; H       0.23; O      -0.59; O      -0.67; O      -0.74; O      -0.70; H       0.32; H       0.30; 
@             H       0.36; H       0.34; H       0.29; H       0.37; H       0.41; H       0.31; 

 DIIS Fock eigenvalues in symmetry 1
      -20.54715      -20.54542      -20.53248      -20.52136      -15.52556
       -1.32654       -1.31904       -1.31512       -1.28807       -1.14100
       -0.70640       -0.67619       -0.67093       -0.65409       -0.64839
       -0.61984       -0.57961       -0.57110       -0.55325       -0.53867
       -0.50736       -0.50004       -0.48853       -0.47556       -0.42144
        0.15084        0.17806        0.19130        0.20962        0.25016
        0.26877        0.28265        0.31225        0.32847        0.36473
        0.36929        0.46401        0.51927        0.55575        0.57210
        0.58281        0.60967        0.61865        0.62962        0.63673
        0.64960        0.67012        0.91430        0.94749        0.95595
        0.98780        1.00688        1.01366        1.02990        1.05177
        1.07571        1.10742        1.11806        1.13119        1.13820
        1.17441        1.19786        1.24693        1.33258        1.37943
        1.41374        1.42056        1.43777        1.45633        1.49682
        1.52732        1.54654        1.55431        1.55785        1.59162
        1.61367        1.62776        1.69793        1.72765        1.74760
        1.76778        1.81172        1.87807        1.89796        1.91533
        1.92949        1.94735        2.00094        2.05050        2.21886
        2.22826        2.25705        2.28063        2.29069        2.31234
        2.38828        2.38899        2.41512        2.47761        2.54474
        2.62010        2.63435        2.64775        2.66136        2.68356
        2.75256        2.78575        2.86024        2.86928        2.88063
        2.96017        3.01454        3.05872        3.26744        3.42578
        3.46137        3.46842        3.47448        3.47637        3.49342
        3.50845        3.53087        3.56156        3.58942        3.65405
        3.68629        3.68736        3.69874        3.95217        3.98896
        4.02395        4.09027        4.20300        4.23224        4.25274
        4.25692        4.52921        5.20146        5.31427        5.32477
        5.34587        5.37118        5.39543        5.72054        5.77429
        5.79403        5.82435        6.06694        6.07604        6.08882
        6.25715       37.07741       51.51617       51.53057       51.54174
       51.57645
 Time used in FCKEIG, thr_jaco:   2.28D-01  2.30D-02  4.02D-07
 CPU and wall times used in FCKEIG, THR_FCKEIG:   2.29D-01  2.30D-02  9.21D-05
 -----------------------------------------------------------------------------

 *** DIIS iteration number    7
 RDSUPM called. NFMAT, ISYMDM(1:NFMAT)                     1
                     1

 ITDIIS, energy, error norm, change in energy, scr.thr., difden:
@ DIIS iter.   7    -360.754763564        2.61892D-03   -9.02D-06  -20    F

 (DIIS_RED) Control Parameters C2DIIS =         F NEVC =    7


 (DIIS_RED) B matrix:

               Column   1     Column   2     Column   3     Column   4     Column   5     Column   6
       1      14.54241703
       2       0.84882582     0.91132958
       3       0.67722258     0.05644915     0.12554637
       4       0.01610923     0.08516416    -0.00437148     0.01314293
       5       0.01629055     0.00689692     0.00553932     0.00099181     0.00069086
       6      -0.00190150    -0.00032948     0.00072208     0.00028814     0.00008090     0.00008487
       7       0.00064607    -0.00003975     0.00009558    -0.00000158     0.00004464     0.00000098

               Column   7
       7       0.00000686
    ==== End of matrix output ====

 DIIS C vector; C2DIIS = F, LAMBDA = -1.46D-06
   -0.000245   -0.001526    0.009238    0.026069   -0.160018   -0.022121    1.148602
* Read MO coefficients from SIRIUS.RST with label "NEWORB  " and header info: 28Dec18  DIIS   7
      Virial theorem: -V/T =      2.002491
@      MULPOP N      -0.68; H       0.22; H       0.22; H       0.24; O      -0.59; O      -0.67; O      -0.74; O      -0.70; H       0.32; H       0.30; 
@             H       0.36; H       0.34; H       0.29; H       0.37; H       0.41; H       0.31; 

 DIIS Fock eigenvalues in symmetry 1
      -20.54642      -20.54543      -20.53252      -20.52139      -15.52493
       -1.32654       -1.31898       -1.31477       -1.28804       -1.14080
       -0.70644       -0.67606       -0.67080       -0.65397       -0.64839
       -0.61972       -0.57940       -0.57115       -0.55332       -0.53875
       -0.50699       -0.49991       -0.48850       -0.47550       -0.42118
        0.15089        0.17807        0.19135        0.20962        0.25019
        0.26876        0.28268        0.31226        0.32856        0.36472
        0.36933        0.46411        0.51934        0.55580        0.57222
        0.58282        0.60969        0.61870        0.62961        0.63676
        0.64963        0.67017        0.91447        0.94762        0.95609
        0.98792        1.00696        1.01373        1.02998        1.05188
        1.07578        1.10742        1.11814        1.13125        1.13828
        1.17445        1.19787        1.24702        1.33267        1.37951
        1.41379        1.42064        1.43787        1.45646        1.49683
        1.52728        1.54653        1.55428        1.55796        1.59161
        1.61365        1.62796        1.69806        1.72768        1.74760
        1.76777        1.81176        1.87812        1.89796        1.91536
        1.92947        1.94743        2.00098        2.05058        2.21887
        2.22834        2.25704        2.28073        2.29084        2.31231
        2.38826        2.38899        2.41509        2.47770        2.54485
        2.62010        2.63445        2.64774        2.66134        2.68354
        2.75256        2.78571        2.86023        2.86939        2.88060
        2.96033        3.01467        3.05888        3.26760        3.42605
        3.46157        3.46847        3.47451        3.47645        3.49376
        3.50849        3.53088        3.56178        3.58942        3.65440
        3.68634        3.68739        3.69873        3.95252        3.98899
        4.02395        4.09026        4.20336        4.23227        4.25275
        4.25696        4.52957        5.20174        5.31451        5.32514
        5.34589        5.37135        5.39547        5.72098        5.77430
        5.79404        5.82436        6.06710        6.07635        6.08882
        6.25713       37.07802       51.51619       51.53061       51.54237
       51.57641
 Time used in FCKEIG, thr_jaco:   2.31D-01  2.40D-02  1.14D-07
 CPU and wall times used in FCKEIG, THR_FCKEIG:   2.31D-01  2.40D-02  2.62D-05
 -----------------------------------------------------------------------------

 *** DIIS iteration number    8
 RDSUPM called. NFMAT, ISYMDM(1:NFMAT)                     1
                     1

 ITDIIS, energy, error norm, change in energy, scr.thr., difden:
@ DIIS iter.   8    -360.754764356        3.86208D-04   -7.93D-07  -20    F

 (DIIS_RED) Control Parameters C2DIIS =         F NEVC =    8


 (DIIS_RED) B matrix:

               Column   1     Column   2     Column   3     Column   4     Column   5     Column   6
       1      14.54241703
       2       0.84882582     0.91132958
       3       0.67722258     0.05644915     0.12554637
       4       0.01610923     0.08516416    -0.00437148     0.01314293
       5       0.01629055     0.00689692     0.00553932     0.00099181     0.00069086
       6      -0.00190150    -0.00032948     0.00072208     0.00028814     0.00008090     0.00008487
       7       0.00064607    -0.00003975     0.00009558    -0.00000158     0.00004464     0.00000098
       8       0.00008760    -0.00000495     0.00000288     0.00000276     0.00000114     0.00000167

               Column   7     Column   8
       7       0.00000686
       8       0.00000039     0.00000015
    ==== End of matrix output ====

 DIIS C vector; C2DIIS = F, LAMBDA = -7.53D-08
    0.000016    0.000066   -0.001017   -0.002348    0.024951   -0.027128   -0.204009    1.209467
* Read MO coefficients from SIRIUS.RST with label "NEWORB  " and header info: 28Dec18  DIIS   8
      Virial theorem: -V/T =      2.002507
@      MULPOP N      -0.68; H       0.22; H       0.22; H       0.24; O      -0.59; O      -0.67; O      -0.74; O      -0.70; H       0.32; H       0.30; 
@             H       0.36; H       0.34; H       0.29; H       0.37; H       0.41; H       0.31; 

 DIIS Fock eigenvalues in symmetry 1
      -20.54645      -20.54538      -20.53248      -20.52135      -15.52497
       -1.32652       -1.31896       -1.31477       -1.28802       -1.14082
       -0.70642       -0.67605       -0.67079       -0.65398       -0.64837
       -0.61974       -0.57942       -0.57116       -0.55332       -0.53876
       -0.50698       -0.49990       -0.48849       -0.47548       -0.42119
        0.15089        0.17807        0.19135        0.20962        0.25018
        0.26876        0.28268        0.31226        0.32855        0.36472
        0.36932        0.46410        0.51933        0.55580        0.57222
        0.58282        0.60969        0.61869        0.62961        0.63676
        0.64963        0.67016        0.91446        0.94761        0.95608
        0.98792        1.00696        1.01373        1.02998        1.05186
        1.07578        1.10742        1.11815        1.13126        1.13829
        1.17445        1.19787        1.24701        1.33266        1.37951
        1.41378        1.42063        1.43786        1.45645        1.49683
        1.52728        1.54653        1.55428        1.55796        1.59161
        1.61365        1.62795        1.69805        1.72768        1.74759
        1.76777        1.81175        1.87811        1.89795        1.91535
        1.92947        1.94742        2.00097        2.05056        2.21887
        2.22832        2.25704        2.28070        2.29085        2.31231
        2.38826        2.38899        2.41509        2.47768        2.54483
        2.62010        2.63445        2.64773        2.66133        2.68354
        2.75254        2.78571        2.86023        2.86938        2.88060
        2.96031        3.01465        3.05885        3.26757        3.42603
        3.46156        3.46847        3.47452        3.47645        3.49375
[...]

 Principal values of diagonalized transition strength matrix:

             a.u.               
 1      -0.00000000
 2      -0.00000000
 3       0.00001699

 Principal axis of diagonalized transition strength matrix:


               Column   1     Column   2     Column   3
       1       0.86474344     0.46870164     0.18038171
       2      -0.50119697     0.82825113     0.25060260
       3      -0.03194350    -0.30711372     0.95113657
    ==== End of matrix output ====


 CCSD   oscillator strength matrix for state nr. 13 of symmetry 1
 CCSD  excitation energy:15.16822514


               Column   1     Column   2     Column   3
       1     5.590446D-06   7.768133D-06   2.948164D-05
       2     7.768133D-06   1.079139D-05   4.095851D-05
       3     2.948164D-05   4.095851D-05   1.554539D-04
    ==== End of matrix output ====

 Principal values of diagonalized oscillator strength matrix:

             a.u.               
 1      -0.00000000
 2       0.00000000
 3       0.00017184

 Principal axis of diagonalized oscillator strength matrix:


               Column   1     Column   2     Column   3
       1       0.86474344     0.46870164     0.18038171
       2      -0.50119697     0.82825113     0.25060260
       3      -0.03194350    -0.30711372     0.95113657
    ==== End of matrix output ====


 CCSD  Transition strength matrix for state nr. 14 of symmetry 1
 CCSD  excitation energy:15.19275014

 Gauge: length

               Column   1     Column   2     Column   3
       1     3.061700D-05   2.775338D-05   8.313694D-06
       2     2.775338D-05   2.515696D-05   7.535775D-06
       3     8.313694D-06   7.535775D-06   2.257310D-06
    ==== End of matrix output ====

 Principal values of diagonalized transition strength matrix:

             a.u.               
 1      -0.00000000
 2      -0.00000000
 3       0.00005803

 Principal axis of diagonalized transition strength matrix:


               Column   1     Column   2     Column   3
       1       0.66319918     0.18047893     0.72635680
       2      -0.59604259    -0.45959425     0.65841200
       3      -0.45265890     0.86959789     0.19722940
    ==== End of matrix output ====


 CCSD   oscillator strength matrix for state nr. 14 of symmetry 1
 CCSD  excitation energy:15.19275014


               Column   1     Column   2     Column   3
       1     3.101043D-04   2.811001D-04   8.420525D-05
       2     2.811001D-04   2.548023D-04   7.632610D-05
       3     8.420525D-05   7.632610D-05   2.286317D-05
    ==== End of matrix output ====

 Principal values of diagonalized oscillator strength matrix:

             a.u.               
 1      -0.00000000
 2       0.00000000
 3       0.00058777

 Principal axis of diagonalized oscillator strength matrix:


               Column   1     Column   2     Column   3
       1       0.66319918     0.18047893     0.72635680
       2      -0.59604259    -0.45959425     0.65841200
       3      -0.45265890     0.86959789     0.19722940
    ==== End of matrix output ====


 CCSD  Transition strength matrix for state nr. 15 of symmetry 1
 CCSD  excitation energy:15.24056936

 Gauge: length

               Column   1     Column   2     Column   3
       1     4.705019D-04   1.773646D-04  -8.929942D-05
       2     1.773646D-04   6.686090D-05  -3.366275D-05
       3    -8.929942D-05  -3.366275D-05   1.694194D-05
    ==== End of matrix output ====

 Principal values of diagonalized transition strength matrix:

             a.u.               
 1      -0.00000001
 2       0.00000000
 3       0.00055431

 Principal axis of diagonalized transition strength matrix:


               Column   1     Column   2     Column   3
       1       0.18088179    -0.34420465     0.92130610
       2       0.01527591     0.93762833     0.34730357
       3       0.98338620     0.04874710    -0.17485793
    ==== End of matrix output ====


 CCSD   oscillator strength matrix for state nr. 15 of symmetry 1
 CCSD  excitation energy:15.24056936


               Column   1     Column   2     Column   3
       1       0.00478048     0.00180209    -0.00090732
       2       0.00180209     0.00067933    -0.00034203
       3      -0.00090732    -0.00034203     0.00017214
    ==== End of matrix output ====

 Principal values of diagonalized oscillator strength matrix:

             a.u.               
 1      -0.00000007
 2      -0.00000000
 3       0.00563201

 Principal axis of diagonalized oscillator strength matrix:


               Column   1     Column   2     Column   3
       1       0.18088179    -0.34420465     0.92130610
       2       0.01527591     0.93762833     0.34730357
       3       0.98338620     0.04874710    -0.17485793
    ==== End of matrix output ====

  Total time for    135 linear response residues:     127.78 seconds.
  

 *******************************************************************************
 *******************************************************************************
 *                                                                             *
 *                                                                             *
 *                   SUMMARY OF COUPLED CLUSTER CALCULATION                    *
 *                                                                             *
 *                                                                             *
 *******************************************************************************
 *******************************************************************************

                                                                                
                                                                                
            Total SCF   energy:                  -360.7547643795                
            Total MP2   energy:                  -361.8563477318                
            Total CCSD  energy:                  -361.8957912929                
                                                                                
                                                                                
            Total SCF   energy:                  -360.7547643795                
            Total RSTAR energy:                  -361.8957912929                
            Total CCSD  energy:                  -361.8959206353                
                                                                                
                                                                                
            Total SCF   energy:                  -360.7547643795                
            Total RSTAR energy:                  -361.8959206353                
            Total CCSD  energy:                  -361.8959213656                
                                                                                
                                                                                
            Total SCF   energy:                  -360.7547643795                
            Total RSTAR energy:                  -361.8959213656                
            Total CCSD  energy:                  -361.8959214399                
                                                                                
                                                                                
            Total SCF   energy:                  -360.7547643795                
            Total RSTAR energy:                  -361.8959214399                
            Total CCSD  energy:                  -361.8959214431                
                                                                                
                                                                                
            Total SCF   energy:                  -360.7547643795                
            Total RSTAR energy:                  -361.8959214431                
            Total CCSD  energy:                  -361.8959214431                
            CCSD Total  energy:                  -362.2856406804                
            CCSD E(QM/MM)     :                    -0.3852214437                
                                                                                
                                                                                
                                                                                
 +=============================================================================+
 |  sym. | Exci.  |        CCSD       Excitation energies            | ||T1||  |
 |(spin, |        +------------------------------------------------------------+
 | spat) |        |     Hartree    |       eV.      |     cm-1       |    %    |
 +=============================================================================+
 | ^1A   |    1   |    14.8254185  |     403.42016  |   3253803.234  |  88.49  |
 | ^1A   |    2   |    14.8934798  |     405.27220  |   3268740.948  |  88.96  |
 | ^1A   |    3   |    14.9130937  |     405.80592  |   3273045.707  |  88.88  |
 | ^1A   |    4   |    14.9331369  |     406.35133  |   3277444.687  |  88.25  |
 | ^1A   |    5   |    14.9939509  |     408.00616  |   3290791.809  |  88.13  |
 | ^1A   |    6   |    15.0117700  |     408.49104  |   3294702.656  |  88.21  |
 | ^1A   |    7   |    15.0306318  |     409.00430  |   3298842.342  |  88.09  |
 | ^1A   |    8   |    15.0363778  |     409.16065  |   3300103.439  |  88.47  |
 | ^1A   |    9   |    15.0601628  |     409.80788  |   3305323.644  |  88.02  |
 | ^1A   |   10   |    15.0661702  |     409.97135  |   3306642.117  |  88.02  |
 | ^1A   |   11   |    15.0929467  |     410.69997  |   3312518.889  |  88.05  |
 | ^1A   |   12   |    15.1122226  |     411.22450  |   3316749.456  |  88.08  |
 | ^1A   |   13   |    15.1682251  |     412.74840  |   3329040.590  |  87.95  |
 | ^1A   |   14   |    15.1927501  |     413.41576  |   3334423.207  |  87.84  |
 | ^1A   |   15   |    15.2405694  |     414.71699  |   3344918.312  |  88.26  |
 +=============================================================================+
                                                                                
                                                                                
     Total energies in Hartree:                                                 
             1 ^1A       -347.0750007204                                        
             2 ^1A       -347.0069394841                                        
             3 ^1A       -346.9873255588                                        
             4 ^1A       -346.9672823324                                        
             5 ^1A       -346.9064683693                                        
             6 ^1A       -346.8886492409                                        
             7 ^1A       -346.8697874408                                        
             8 ^1A       -346.8640414588                                        
             9 ^1A       -346.8402564571                                        
            10 ^1A       -346.8342490519                                        
            11 ^1A       -346.8074725071                                        
            12 ^1A       -346.7881966274                                        
            13 ^1A       -346.7321940967                                        
            14 ^1A       -346.7076690924                                        
            15 ^1A       -346.6598498728                                        
                                                                                
                                                                                
 +=============================================================================+
 |  sym. | Exci.  |        CCSD       Length   Gauge Oscillator Strength       |
 |(spin, |        +------------------------------------------------------------+
 | spat) |        | Dipole Strength(a.u.) | Oscillator strength  | Direction   |
 +=============================================================================+
 | ^1A   |    1   |        0.0004625      |      0.0045716       |  (Y,Z)      |
 | ^1A   |    2   |        0.0035426      |      0.0351740       |  (Y,Z)      |
 | ^1A   |    3   |        0.0031073      |      0.0308932       |  (Y,Z)      |
 | ^1A   |    4   |        0.0012187      |      0.0121330       |  (Y,Z)      |
 | ^1A   |    5   |        0.0002081      |      0.0020800       |  (Y,Z)      |
 | ^1A   |    6   |        0.0007896      |      0.0079022       |  (Y,Z)      |
 | ^1A   |    7   |        0.0004092      |      0.0041002       |  (Y,Z)      |
 | ^1A   |    8   |        0.0018350      |      0.0183946       |  (Y,Z)      |
 | ^1A   |    9   |        0.0000339      |      0.0003406       |  (Y,Z)      |
 | ^1A   |   10   |        0.0000541      |      0.0005431       |  (Y,Z)      |
 | ^1A   |   11   |        0.0000483      |      0.0004861       |  (Y,Z)      |
 | ^1A   |   12   |        0.0001161      |      0.0011700       |  (Y,Z)      |
 | ^1A   |   13   |        0.0000170      |      0.0001718       |  (Y,Z)      |
 | ^1A   |   14   |        0.0000580      |      0.0005878       |  (Y,Z)      |
 | ^1A   |   15   |        0.0005543      |      0.0056319       |  (Y,Z)      |
 +=============================================================================+

  1 a.u. =        27.21138 eV.  
  1 a.u. =    219474.62934 cm-1.
  

 *******************************************************************************
 *******************************************************************************
 *                                                                             *
 *                                                                             *
 *                      END OF COUPLED CLUSTER CALCULATION                     *
 *                                                                             *
 *                                                                             *
 *******************************************************************************
 *******************************************************************************


 CPU and wall time for CC :  461612.402   50789.292

 
     Date and time (Linux)  : Fri Dec 28 15:24:43 2018
     Host name              : n-62-23-17                              


                      .-------------------------------------.
                      | End of Coupled Cluster Section (CC) |
                      `-------------------------------------'

  Total CPU  time used in DALTON: 128 hours 25 minutes 36 seconds
  Total wall time used in DALTON:  14 hours  8 minutes 57 seconds

 
     Date and time (Linux)  : Fri Dec 28 15:24:44 2018
     Host name              : n-62-23-17                              
  

 +---------------------------------------------------------+ 
 | List of selected calculated molecular properties (a.u.) | 
 +---------------------------------------------------------+ 

  Properties are read from unit number                      4

 CCSD       properties :
 #  1 1 CCSD/MM  Ground state Energy =    -362.2856406804
 #  2 1 E_QM/MM  Ground state Energy =      -0.3852214437
 #  3 1 Sy: 1 Sp: 1 Exc:  1 E_tot:   -347.0750007204 w:     14.8254185162 E_grs:   -361.9004192366
 #  4 1 Exctot   Excited state Energy =    -347.0750007204
 #  5 1 Sy: 1 Sp: 1 Exc:  2 E_tot:   -347.0069394841 w:     14.8934797525 E_grs:   -361.9004192366
 #  6 1 Exctot   Excited state Energy =    -347.0069394841
 #  7 1 Sy: 1 Sp: 1 Exc:  3 E_tot:   -346.9873255588 w:     14.9130936778 E_grs:   -361.9004192366
 #  8 1 Exctot   Excited state Energy =    -346.9873255588
 #  9 1 Sy: 1 Sp: 1 Exc:  4 E_tot:   -346.9672823324 w:     14.9331369042 E_grs:   -361.9004192366
 # 10 1 Exctot   Excited state Energy =    -346.9672823324
 # 11 1 Sy: 1 Sp: 1 Exc:  5 E_tot:   -346.9064683693 w:     14.9939508673 E_grs:   -361.9004192366
 # 12 1 Exctot   Excited state Energy =    -346.9064683693
 # 13 1 Sy: 1 Sp: 1 Exc:  6 E_tot:   -346.8886492409 w:     15.0117699957 E_grs:   -361.9004192366
 # 14 1 Exctot   Excited state Energy =    -346.8886492409
 # 15 1 Sy: 1 Sp: 1 Exc:  7 E_tot:   -346.8697874408 w:     15.0306317958 E_grs:   -361.9004192366
 # 16 1 Exctot   Excited state Energy =    -346.8697874408
 # 17 1 Sy: 1 Sp: 1 Exc:  8 E_tot:   -346.8640414588 w:     15.0363777778 E_grs:   -361.9004192366
 # 18 1 Exctot   Excited state Energy =    -346.8640414588
 # 19 1 Sy: 1 Sp: 1 Exc:  9 E_tot:   -346.8402564571 w:     15.0601627796 E_grs:   -361.9004192366
 # 20 1 Exctot   Excited state Energy =    -346.8402564571
 # 21 1 Sy: 1 Sp: 1 Exc: 10 E_tot:   -346.8342490519 w:     15.0661701847 E_grs:   -361.9004192366
 # 22 1 Exctot   Excited state Energy =    -346.8342490519
 # 23 1 Sy: 1 Sp: 1 Exc: 11 E_tot:   -346.8074725071 w:     15.0929467295 E_grs:   -361.9004192366
 # 24 1 Exctot   Excited state Energy =    -346.8074725071
 # 25 1 Sy: 1 Sp: 1 Exc: 12 E_tot:   -346.7881966274 w:     15.1122226093 E_grs:   -361.9004192366
 # 26 1 Exctot   Excited state Energy =    -346.7881966274
 # 27 1 Sy: 1 Sp: 1 Exc: 13 E_tot:   -346.7321940967 w:     15.1682251400 E_grs:   -361.9004192366
 # 28 1 Exctot   Excited state Energy =    -346.7321940967
 # 29 1 Sy: 1 Sp: 1 Exc: 14 E_tot:   -346.7076690924 w:     15.1927501442 E_grs:   -361.9004192366
 # 30 1 Exctot   Excited state Energy =    -346.7076690924
 # 31 1 Sy: 1 Sp: 1 Exc: 15 E_tot:   -346.6598498728 w:     15.2405693638 E_grs:   -361.9004192366
 # 32 1 Exctot   Excited state Energy =    -346.6598498728
 # 33 1 |<O|XDIPLEN |i(14.825419)>| =     0.00442403
 # 35 1 |<O|XDIPLEN |i(14.893480)>| =     0.00887613
 # 37 1 |<O|XDIPLEN |i(14.913094)>| =     0.03964022
 # 39 1 |<O|XDIPLEN |i(14.933137)>| =     0.01857948
 # 41 1 |<O|XDIPLEN |i(14.993951)>| =     0.01033755
 # 43 1 |<O|XDIPLEN |i(15.011770)>| =     0.00269943
 # 45 1 |<O|XDIPLEN |i(15.030632)>| =     0.00405433
 # 47 1 |<O|XDIPLEN |i(15.036378)>| =     0.04138280
 # 49 1 |<O|XDIPLEN |i(15.060163)>| =     0.00219606
 # 51 1 |<O|XDIPLEN |i(15.066170)>| =     0.00718995
 # 53 1 |<O|XDIPLEN |i(15.092947)>| =     0.00496710
 # 55 1 |<O|XDIPLEN |i(15.112223)>| =     0.00265547
 # 57 1 |<O|XDIPLEN |i(15.168225)>| =     0.00074354
 # 59 1 |<O|XDIPLEN |i(15.192750)>| =     0.00553326
 # 61 1 |<O|XDIPLEN |i(15.240569)>| =     0.02169106
 # 63 1 |<O|YDIPLEN |i(14.825419)>| =     0.00790249
 # 65 1 |<O|YDIPLEN |i(14.893480)>| =     0.04497772
 # 67 1 |<O|YDIPLEN |i(14.913094)>| =     0.02825549
 # 69 1 |<O|YDIPLEN |i(14.933137)>| =     0.01418859
 # 71 1 |<O|YDIPLEN |i(14.993951)>| =     0.00991822
 # 73 1 |<O|YDIPLEN |i(15.011770)>| =     0.02788791
 # 75 1 |<O|YDIPLEN |i(15.030632)>| =     0.00347334
 # 77 1 |<O|YDIPLEN |i(15.036378)>| =     0.00298560
 # 79 1 |<O|YDIPLEN |i(15.060163)>| =     0.00464412
 # 81 1 |<O|YDIPLEN |i(15.066170)>| =     0.00061194
 # 83 1 |<O|YDIPLEN |i(15.092947)>| =     0.00485911
 # 85 1 |<O|YDIPLEN |i(15.112223)>| =     0.00393350
 # 87 1 |<O|YDIPLEN |i(15.168225)>| =     0.00103304
 # 89 1 |<O|YDIPLEN |i(15.192750)>| =     0.00501567
 # 91 1 |<O|YDIPLEN |i(15.240569)>| =     0.00817685
 # 93 1 |<O|ZDIPLEN |i(14.825419)>| =     0.01950697
 # 95 1 |<O|ZDIPLEN |i(14.893480)>| =     0.03795761
 # 97 1 |<O|ZDIPLEN |i(14.913094)>| =     0.02715877
 # 99 1 |<O|ZDIPLEN |i(14.933137)>| =     0.02592718
 #101 1 |<O|ZDIPLEN |i(14.993951)>| =     0.00168677
 #103 1 |<O|ZDIPLEN |i(15.011770)>| =     0.00213939
 #105 1 |<O|ZDIPLEN |i(15.030632)>| =     0.01951120
 #107 1 |<O|ZDIPLEN |i(15.036378)>| =     0.01065629
 #109 1 |<O|ZDIPLEN |i(15.060163)>| =     0.00274506
 #111 1 |<O|ZDIPLEN |i(15.066170)>| =     0.00141348
 #113 1 |<O|ZDIPLEN |i(15.092947)>| =     0.00017880
 #115 1 |<O|ZDIPLEN |i(15.112223)>| =     0.00967485
 #117 1 |<O|ZDIPLEN |i(15.168225)>| =     0.00392084
 #119 1 |<O|ZDIPLEN |i(15.192750)>| =     0.00150243
 #121 1 |<O|ZDIPLEN |i(15.240569)>| =     0.00411606

 THE_END   
