

     ************************************************************************
     *************** Dalton - An Electronic Structure Program ***************
     ************************************************************************

    This is output from DALTON release Dalton2017.alpha (2016)
         ( Web site: http://daltonprogram.org )

   ----------------------------------------------------------------------------

    NOTE:
     
    Dalton is an experimental code for the evaluation of molecular
    properties using (MC)SCF, DFT, CI, and CC wave functions.
    The authors accept no responsibility for the performance of
    the code or for the correctness of the results.
     
    The code (in whole or part) is provided under a licence and
    is not to be reproduced for further distribution without
    the written permission of the authors or their representatives.
     
    See the home page "http://daltonprogram.org" for further information.
     
    If results obtained with this code are published,
    the appropriate citations would be both of:
     
       K. Aidas, C. Angeli, K. L. Bak, V. Bakken, R. Bast,
       L. Boman, O. Christiansen, R. Cimiraglia, S. Coriani,
       P. Dahle, E. K. Dalskov, U. Ekstroem,
       T. Enevoldsen, J. J. Eriksen, P. Ettenhuber, B. Fernandez,
       L. Ferrighi, H. Fliegl, L. Frediani, K. Hald, A. Halkier,
       C. Haettig, H. Heiberg, T. Helgaker, A. C. Hennum,
       H. Hettema, E. Hjertenaes, S. Hoest, I.-M. Hoeyvik,
       M. F. Iozzi, B. Jansik, H. J. Aa. Jensen, D. Jonsson,
       P. Joergensen, J. Kauczor, S. Kirpekar,
       T. Kjaergaard, W. Klopper, S. Knecht, R. Kobayashi, H. Koch,
       J. Kongsted, A. Krapp, K. Kristensen, A. Ligabue,
       O. B. Lutnaes, J. I. Melo, K. V. Mikkelsen, R. H. Myhre,
       C. Neiss, C. B. Nielsen, P. Norman, J. Olsen,
       J. M. H. Olsen, A. Osted, M. J. Packer, F. Pawlowski,
       T. B. Pedersen, P. F. Provasi, S. Reine, Z. Rinkevicius,
       T. A. Ruden, K. Ruud, V. Rybkin, P. Salek, C. C. M. Samson,
       A. Sanchez de Meras, T. Saue, S. P. A. Sauer,
       B. Schimmelpfennig, K. Sneskov, A. H. Steindal,
       K. O. Sylvester-Hvid, P. R. Taylor, A. M. Teale,
       E. I. Tellgren, D. P. Tew, A. J. Thorvaldsen, L. Thoegersen,
       O. Vahtras, M. A. Watson, D. J. D. Wilson, M. Ziolkowski
       and H. Agren,
       "The Dalton quantum chemistry program system",
       WIREs Comput. Mol. Sci. 2014, 4:269–284 (doi: 10.1002/wcms.1172)
     
    and
     
       Dalton, a Molecular Electronic Structure Program,
       Release Dalton2017.alpha (2016), see http://daltonprogram.org
   ----------------------------------------------------------------------------

    Authors in alphabetical order (major contribution(s) in parenthesis):

  Kestutis Aidas,           Vilnius University,           Lithuania   (QM/MM)
  Celestino Angeli,         University of Ferrara,        Italy       (NEVPT2)
  Keld L. Bak,              UNI-C,                        Denmark     (AOSOPPA, non-adiabatic coupling, magnetic properties)
  Vebjoern Bakken,          University of Oslo,           Norway      (DALTON; geometry optimizer, symmetry detection)
  Radovan Bast,             UiT The Arctic U. of Norway,  Norway      (DALTON installation and execution frameworks)
  Pablo Baudin,             University of Valencia,       Spain       (Cholesky excitation energies)
  Linus Boman,              NTNU,                         Norway      (Cholesky decomposition and subsystems)
  Ove Christiansen,         Aarhus University,            Denmark     (CC module)
  Renzo Cimiraglia,         University of Ferrara,        Italy       (NEVPT2)
  Sonia Coriani,            University of Trieste,        Italy       (CC module, MCD in RESPONS)
  Janusz Cukras,            University of Trieste,        Italy       (MChD in RESPONS)
  Paal Dahle,               University of Oslo,           Norway      (Parallelization)
  Erik K. Dalskov,          UNI-C,                        Denmark     (SOPPA)
  Thomas Enevoldsen,        Univ. of Southern Denmark,    Denmark     (SOPPA)
  Janus J. Eriksen,         Aarhus University,            Denmark     (Polarizable embedding model, TDA)
  Rasmus Faber,             University of Copenhagen,     Denmark     (Vib.avg. NMR with SOPPA, parallel AO-SOPPA)
  Berta Fernandez,          U. of Santiago de Compostela, Spain       (doublet spin, ESR in RESPONS)
  Lara Ferrighi,            Aarhus University,            Denmark     (PCM Cubic response)
  Heike Fliegl,             University of Oslo,           Norway      (CCSD(R12))
  Luca Frediani,            UiT The Arctic U. of Norway,  Norway      (PCM)
  Bin Gao,                  UiT The Arctic U. of Norway,  Norway      (Gen1Int library)
  Christof Haettig,         Ruhr-University Bochum,       Germany     (CC module)
  Kasper Hald,              Aarhus University,            Denmark     (CC module)
  Asger Halkier,            Aarhus University,            Denmark     (CC module)
  Frederik Beyer Hansen,    University of Copenhagen,     Denmark     (Parallel AO-SOPPA)
  Erik D. Hedegaard,        Univ. of Southern Denmark,    Denmark     (Polarizable embedding model, QM/MM)
  Hanne Heiberg,            University of Oslo,           Norway      (geometry analysis, selected one-electron integrals)
  Trygve Helgaker,          University of Oslo,           Norway      (DALTON; ABACUS, ERI, DFT modules, London, and much more)
  Alf Christian Hennum,     University of Oslo,           Norway      (Parity violation)
  Hinne Hettema,            University of Auckland,       New Zealand (quadratic response in RESPONS; SIRIUS supersymmetry)
  Eirik Hjertenaes,         NTNU,                         Norway      (Cholesky decomposition)
  Pi A. B. Haase,           University of Copenhagen,     Denmark     (Triplet AO-SOPPA)
  Maria Francesca Iozzi,    University of Oslo,           Norway      (RPA)
  Brano Jansik              Technical Univ. of Ostrava    Czech Rep.  (DFT cubic response)
  Hans Joergen Aa. Jensen,  Univ. of Southern Denmark,    Denmark     (DALTON; SIRIUS, RESPONS, ABACUS modules, London, and much more)
  Dan Jonsson,              UiT The Arctic U. of Norway,  Norway      (cubic response in RESPONS module)
  Poul Joergensen,          Aarhus University,            Denmark     (RESPONS, ABACUS, and CC modules)
  Maciej Kaminski,          University of Warsaw,         Poland      (CPPh in RESPONS)
  Joanna Kauczor,           Linkoeping University,        Sweden      (Complex polarization propagator (CPP) module)
  Sheela Kirpekar,          Univ. of Southern Denmark,    Denmark     (Mass-velocity & Darwin integrals)
  Wim Klopper,              KIT Karlsruhe,                Germany     (R12 code in CC, SIRIUS, and ABACUS modules)
  Stefan Knecht,            ETH Zurich,                   Switzerland (Parallel CI and MCSCF)
  Rika Kobayashi,           Australian National Univ.,    Australia   (DIIS in CC, London in MCSCF)
  Henrik Koch,              NTNU,                         Norway      (CC module, Cholesky decomposition)
  Jacob Kongsted,           Univ. of Southern Denmark,    Denmark     (Polarizable embedding model, QM/MM)
  Andrea Ligabue,           University of Modena,         Italy       (CTOCD, AOSOPPA)
  Nanna H. List             Univ. of Southern Denmark,    Denmark     (Polarizable embedding model)
  Ola B. Lutnaes,           University of Oslo,           Norway      (DFT Hessian)
  Juan I. Melo,             University of Buenos Aires,   Argentina   (LRESC, Relativistic Effects on NMR Shieldings)
  Kurt V. Mikkelsen,        University of Copenhagen,     Denmark     (MC-SCRF and QM/MM)
  Rolf H. Myhre,            NTNU,                         Norway      (Cholesky, subsystems and ECC2)
  Christian Neiss,          Univ. Erlangen-Nuernberg,     Germany     (CCSD(R12))
  Christian B. Nielsen,     University of Copenhagen,     Denmark     (QM/MM)
  Patrick Norman,           Linkoeping University,        Sweden      (Cubic response and complex frequency response in RESPONS)
  Jeppe Olsen,              Aarhus University,            Denmark     (SIRIUS CI/density modules)
  Jogvan Magnus H. Olsen,   Univ. of Southern Denmark,    Denmark     (Polarizable embedding model, QM/MM)
  Anders Osted,             Copenhagen University,        Denmark     (QM/MM)
  Martin J. Packer,         University of Sheffield,      UK          (SOPPA)
  Filip Pawlowski,          Kazimierz Wielki University,  Poland      (CC3)
  Morten N. Pedersen,       Univ. of Southern Denmark,    Denmark     (Polarizable embedding model)
  Thomas B. Pedersen,       University of Oslo,           Norway      (Cholesky decomposition)
  Patricio F. Provasi,      University of Northeastern,   Argentina   (Analysis of coupling constants in localized orbitals)
  Zilvinas Rinkevicius,     KTH Stockholm,                Sweden      (open-shell DFT, ESR)
  Elias Rudberg,            KTH Stockholm,                Sweden      (DFT grid and basis info)
  Torgeir A. Ruden,         University of Oslo,           Norway      (Numerical derivatives in ABACUS)
  Kenneth Ruud,             UiT The Arctic U. of Norway,  Norway      (DALTON; ABACUS magnetic properties and much more)
  Pawel Salek,              KTH Stockholm,                Sweden      (DALTON; DFT code)
  Claire C. M. Samson       University of Karlsruhe       Germany     (Boys localization, r12 integrals in ERI)
  Alfredo Sanchez de Meras, University of Valencia,       Spain       (CC module, Cholesky decomposition)
  Trond Saue,               Paul Sabatier University,     France      (direct Fock matrix construction)
  Stephan P. A. Sauer,      University of Copenhagen,     Denmark     (SOPPA(CCSD), SOPPA prop., AOSOPPA, vibrational g-factors)
  Bernd Schimmelpfennig,    Forschungszentrum Karlsruhe,  Germany     (AMFI module)
  Kristian Sneskov,         Aarhus University,            Denmark     (Polarizable embedding model, QM/MM)
  Arnfinn H. Steindal,      UiT The Arctic U. of Norway,  Norway      (parallel QM/MM, Polarizable embedding model)
  Casper Steinmann,         Univ. of Southern Denmark,    Denmark     (QFIT, Polarizable embedding model)
  K. O. Sylvester-Hvid,     University of Copenhagen,     Denmark     (MC-SCRF)
  Peter R. Taylor,          VLSCI/Univ. of Melbourne,     Australia   (Symmetry handling ABACUS, integral transformation)
  Andrew M. Teale,          University of Nottingham,     England     (DFT-AC, DFT-D)
  David P. Tew,             University of Bristol,        England     (CCSD(R12))
  Olav Vahtras,             KTH Stockholm,                Sweden      (triplet response, spin-orbit, ESR, TDDFT, open-shell DFT)
  David J. Wilson,          La Trobe University,          Australia   (DFT Hessian and DFT magnetizabilities)
  Hans Agren,               KTH Stockholm,                Sweden      (SIRIUS module, RESPONS, MC-SCRF solvation model)
 --------------------------------------------------------------------------------

     Date and time (Linux)  : Sat Dec 22 18:10:32 2018
     Host name              : n-62-24-2                               

 * Work memory size             :  1280000000 =  9.537 gigabytes.

 * Directories for basis set searches:
   1) /zhome/37/3/129401/NH3NH4/CCSD/AIMD_SAMPLING/nh3_4h2o_nd
   2) /zhome/9a/4/124800/source/dalton/build-mlcc/basis


Compilation information
-----------------------

 Who compiled             | rfaber
 Host                     | hpclogin1
 System                   | Linux-2.6.32-696.1.1.el6.x86_64
 CMake generator          | Unix Makefiles
 Processor                | x86_64
 64-bit integers          | ON
 MPI                      | OFF
 Fortran compiler         | /opt/intel/2016update2/compilers_and_libraries_201
                          | 6.2.181/linux/bin/intel64/ifort
 Fortran compiler version | ifort (IFORT) 16.0.2 20160204
 C compiler               | /opt/intel/2016update2/compilers_and_libraries_201
                          | 6.2.181/linux/bin/intel64/icc
 C compiler version       | icc (ICC) 16.0.2 20160204
 C++ compiler             | /opt/intel/2016update2/compilers_and_libraries_201
                          | 6.2.181/linux/bin/intel64/icpc
 C++ compiler version     | icpc (ICC) 16.0.2 20160204
 Static linking           | OFF
 Last Git revision        | bb4d1599ca5680a9f3980451fc8bbefdba436d59
 Git branch               | mlcc
 Configuration time       | 2017-06-13 16:11:03.928841


   Content of the .dal input file
 ----------------------------------

**DALTON
.RUN WAVE FUNCTIONS
*QMMM
.QMMM
**INTEGRALS
.DIPLEN
**WAVE FUNCTIONS
.CC
*PRINT
!To check the origin of excit
.PRINTL
   0 11
*SCF INP
.THRESH
1.0D-7
*CC INP
.CCSD
.THRLEQ
 1.0D-9
.THRENR
 1.0D-10
.FROIMP
4
0
.PRINT
 1
.MAX IT
 1200
.MAXRED
 1200
.MXLRV
1199
*CCSLV
.CCMM
.MXSLIT
200
.MXINIT
4 5
*CCEXCI
.NCCEXC
 15
.CVSEPARA
1
1
*CCLRSD
.DIPOLE
**END OF DALTON INPUT


   Content of the .mol file
 ----------------------------

ATOMBASIS


Atomtypes=4 Charge=0 Nosymm Angstrom
   7.00000    1    Basis=6-311G**
N          0.000000        0.000000        0.000000
   1.00000    3    Basis=6-311G**
H         -0.774186       -0.362234        0.493585
H          0.811569       -0.278613        0.584647
H         -0.089588        0.981411        0.137075
   8.00000    4    Basis=6-311G**
O          2.646296        0.944830        1.610382
O          0.227909        0.303190       -2.834766
O         -0.021424        3.508610        0.198564
O         -3.285825       -0.235934        0.811258
   1.00000    8    Basis=6-311G**
H          2.209198        1.768561        1.798211
H          3.522272        1.047300        2.145184
H          1.043744        0.164758       -3.474758
H          0.230087        0.027889       -1.815101
H          0.421179        3.490027        1.113136
H         -0.558979        4.425251        0.158378
H         -3.572133        0.436188        0.020546
H         -4.161932       -0.286939        1.298657


       *******************************************************************
       *********** Output from DALTON general input processing ***********
       *******************************************************************

 --------------------------------------------------------------------------------
   Overall default print level:    0
   Print level for DALTON.STAT:    1

    HERMIT 1- and 2-electron integral sections will be executed
    "Old" integral transformation used (limited to max 255 basis functions)
    Wave function sections will be executed (SIRIUS module)
 --------------------------------------------------------------------------------


 Changes of defaults for *QMMM  :
 --------------------------------

 +------------------+
 |  WORD: | CHANGE: |
 +------------------+
 |   QMMM |       T |
 +------------------+
 


   ****************************************************************************
   *************** Output of molecule and basis set information ***************
   ****************************************************************************


    The two title cards from your ".mol" input:
    ------------------------------------------------------------------------
 1:                                                                         
 2:                                                                         
    ------------------------------------------------------------------------

  Coordinates are entered in Angstrom and converted to atomic units.
          - Conversion factor : 1 bohr = 0.52917721 A

  Atomic type no.    1
  --------------------
  Nuclear charge:   7.00000
  Number of symmetry independent centers:    1
  Number of basis sets to read;    2
  The basis set is "6-311G**" from the basis set library.
  Basis set file used for this atomic type with Z =   7 :
     "/zhome/9a/4/124800/source/dalton/build-mlcc/basis/6-311G**"

  Info about the basis set file: your basis has no documentation.
  Basis set: 6-311G**                                                                        

  Atomic type no.    2
  --------------------
  Nuclear charge:   1.00000
  Number of symmetry independent centers:    3
  Number of basis sets to read;    2
  The basis set is "6-311G**" from the basis set library.
  Basis set file used for this atomic type with Z =   1 :
     "/zhome/9a/4/124800/source/dalton/build-mlcc/basis/6-311G**"

  Info about the basis set file: your basis has no documentation.
  Basis set: 6-311G**                                                                        

  Atomic type no.    3
  --------------------
  Nuclear charge:   8.00000
  Number of symmetry independent centers:    4
  Number of basis sets to read;    2
  The basis set is "6-311G**" from the basis set library.
  Basis set file used for this atomic type with Z =   8 :
     "/zhome/9a/4/124800/source/dalton/build-mlcc/basis/6-311G**"

  Info about the basis set file: your basis has no documentation.
  Basis set: 6-311G**                                                                        

  Atomic type no.    4
  --------------------
  Nuclear charge:   1.00000
  Number of symmetry independent centers:    8
  Number of basis sets to read;    2
  The basis set is "6-311G**" from the basis set library.
  Basis set file used for this atomic type with Z =   1 :
     "/zhome/9a/4/124800/source/dalton/build-mlcc/basis/6-311G**"

  Info about the basis set file: your basis has no documentation.
  Basis set: 6-311G**                                                                        


                         SYMGRP: Point group information
                         -------------------------------

@    Point group: C1 


                                 Isotopic Masses
                                 ---------------

                           N          14.003074
                           H           1.007825
                           H           1.007825
                           H           1.007825
                           O          15.994915
                           O          15.994915
                           O          15.994915
                           O          15.994915
                           H           1.007825
                           H           1.007825
                           H           1.007825
                           H           1.007825
                           H           1.007825
                           H           1.007825
                           H           1.007825
                           H           1.007825

                       Total mass:    89.068809 amu
                       Natural abundance:  98.514 %

 Center-of-mass coordinates (a.u.):   -0.166602    1.778175   -0.020221


  Atoms and basis sets
  --------------------

  Number of atom types :    4
  Total number of atoms:   16

  label    atoms   charge   prim   cont     basis
  ----------------------------------------------------------------------
  N           1    7.0000    31    18      [11s5p1d|4s3p1d]                                   
  H           3    1.0000     8     6      [5s1p|3s1p]                                        
  O           4    8.0000    31    18      [11s5p1d|4s3p1d]                                   
  H           8    1.0000     8     6      [5s1p|3s1p]                                        
  ----------------------------------------------------------------------
  total:     16   50.0000   243   156
  ----------------------------------------------------------------------
  Spherical harmonic basis used.

  Threshold for neglecting AO integrals:  1.00D-12


  Cartesian Coordinates (a.u.)
  ----------------------------

  Total number of coordinates:   48
  N       :     1  x   0.0000000000    2  y   0.0000000000    3  z   0.0000000000
  H       :     4  x  -1.4629995098    5  y  -0.6845230532    6  z   0.9327404694
  H       :     7  x   1.5336431415    8  y  -0.5265022649    9  z   1.1048227098
  H       :    10  x  -0.1692967841   11  y   1.8545980061   12  z   0.2590342086
  O       :    13  x   5.0007746857   14  y   1.7854699347   15  z   3.0431809366
  O       :    16  x   0.4306855914   17  y   0.5729460638   18  z  -5.3569313684
  O       :    19  x  -0.0404854925   20  y   6.6303119794   21  z   0.3752315783
  O       :    22  x  -6.2093093447   23  y  -0.4458506436   24  z   1.5330554367
  H       :    25  x   4.1747791759   26  y   3.3420959253   27  z   3.3981263050
  H       :    28  x   6.6561294177   29  y   1.9791101707   30  z   4.0538102477
  H       :    31  x   1.9723903046   32  y   0.3113474969   33  z  -6.5663409706
  H       :    34  x   0.4348014149   35  y   0.0527025719   36  z  -3.4300437792
  H       :    37  x   0.7959129596   38  y   6.5951951988   39  z   2.1035221799
  H       :    40  x  -1.0563172196   41  y   8.3625124244   42  z   0.2992910442
  H       :    43  x  -6.7503530521   44  y   0.8242758590   45  z   0.0388263130
  H       :    46  x  -7.8649116308   47  y  -0.5422361246   48  z   2.4541060603


   Interatomic separations (in Angstrom):
   --------------------------------------

            N           H           H           H           O           O     
            ------      ------      ------      ------      ------      ------
 N     :    0.000000
 H     :    0.987018    0.000000
 H     :    1.038307    1.590567    0.000000
 H     :    0.994979    1.549566    1.612472    0.000000
 O     :    3.238660    3.828231    2.432112    3.107577    0.000000
 O     :    2.860029    3.539054    3.517320    3.064739    5.100945    0.000000
 O     :    3.514290    3.954380    3.896921    2.528866    3.960168    4.420178
 O     :    3.392705    2.534797    4.103878    3.486027    6.101054    5.092197
 H     :    3.352898    3.891390    2.759896    2.943365    0.951245    5.247599
 H     :    4.255003    4.813950    3.397239    4.133083    1.031430    6.017178
 H     :    3.631871    4.396628    4.090141    3.872557    5.388444    1.046107
 H     :    1.829839    2.547703    2.488143    2.195993    4.291012    1.056178
 H     :    3.687377    4.080767    3.825487    2.739842    3.417079    5.077323
 H     :    4.463226    4.804029    4.917971    3.475747    4.949286    5.154560
 H     :    3.598724    2.947838    4.477275    3.526892    6.438568    4.755083
 H     :    4.369270    3.482906    5.024499    4.420630    6.925778    6.058394

            O           O           H           H           H           H     
            ------      ------      ------      ------      ------      ------
 O     :    0.000000
 O     :    5.005329    0.000000
 H     :    3.249972    5.931893    0.000000
 H     :    4.733409    7.055227    1.537781    0.000000
 H     :    5.080278    6.105379    5.633353    6.205299    0.000000
 H     :    4.029085    4.396476    4.472454    5.249908    1.853438    0.000000
 H     :    1.016211    5.264579    2.574837    4.080296    5.700331    4.538446
 H     :    1.063396    5.439539    4.172512    5.658141    5.824105    4.884059
 H     :    4.698830    1.076543    6.193472    7.430890    5.796304    4.241837
 H     :    5.723653    1.003854    6.713116    7.844985    7.077329    5.392999

            H           H           H           H     
            ------      ------      ------      ------
 H     :    0.000000
 H     :    1.657382    0.000000
 H     :    5.144534    5.001072    0.000000
 H     :    5.941784    6.040384    1.582512    0.000000


  Max    interatomic separation is    7.8450 Angstrom (   14.8249 Bohr)
  between atoms   16 and   10, "H     " and "H     ".

  Min HX interatomic separation is    0.9512 Angstrom (    1.7976 Bohr)

  Min YX interatomic separation is    2.8600 Angstrom (    5.4047 Bohr)


  Bond distances (Angstrom):
  --------------------------

                  atom 1     atom 2       distance
                  ------     ------       --------
  bond distance:  H          N            0.987018
  bond distance:  H          N            1.038307
  bond distance:  H          N            0.994979
  bond distance:  H          O            0.951245
  bond distance:  H          O            1.031430
  bond distance:  H          O            1.046107
  bond distance:  H          O            1.056178
  bond distance:  H          O            1.016211
  bond distance:  H          O            1.063396
  bond distance:  H          O            1.076543
  bond distance:  H          O            1.003854


  Bond angles (degrees):
  ----------------------

                  atom 1     atom 2     atom 3         angle
                  ------     ------     ------         -----
  bond angle:     H          N          H            103.475
  bond angle:     H          N          H            102.854
  bond angle:     H          N          H            104.921
  bond angle:     H          O          H            101.644
  bond angle:     H          O          H            123.679
  bond angle:     H          O          H            105.661
  bond angle:     H          O          H             98.988




 Principal moments of inertia (u*A**2) and principal axes
 --------------------------------------------------------

   IA     352.708549          0.923631    0.344757    0.167478
   IB     505.382914         -0.260594    0.244433    0.933993
   IC     574.048056         -0.281063    0.906309   -0.315608


 Rotational constants
 --------------------

               A                   B                   C

           1432.8516            999.9923            880.3775 MHz
            0.047795            0.033356            0.029366 cm-1


@  Nuclear repulsion energy :  175.412025592935 Hartree


                     .---------------------------------------.
                     | Starting in Integral Section (HERMIT) |
                     `---------------------------------------'



 ***************************************************************************************
 ****************** Output from **INTEGRALS input processing (HERMIT) ******************
 ***************************************************************************************



    *************************************************************************
    ****************** Output from HERMIT input processing ******************
    *************************************************************************


 Default print level:        1

 * Nuclear model: Point charge

 Calculation of one- and two-electron Hamiltonian integrals.

 The following one-electron property integrals are calculated as requested:
          - overlap integrals
          - dipole length integrals

 Center of mass  (bohr):     -0.166601525428      1.778175198658     -0.020221313649
 Operator center (bohr):      0.000000000000      0.000000000000      0.000000000000
 Gauge origin    (bohr):      0.000000000000      0.000000000000      0.000000000000
 Dipole origin   (bohr):      0.000000000000      0.000000000000      0.000000000000
 
  *********************************** 
  QMMM electrostatic potential: 
  Multipole order                                    0
  Isotropic polarization  
  *********************************** 
 
  ---------------- 
  QMMM information 
  ---------------- 
 
  MM coordinates in au 
  -------------------- 
     1    -10.945524      4.202350      9.134900
     2     -9.197431      4.032094      9.596126
     3    -11.428706      6.067954      9.354917
     4     -7.334498    -11.602074      1.920944
     5     -5.522980    -11.718014      1.220652
     6     -7.446264     -9.913208      2.681988
     7     -0.708863     -5.810090      4.441856
     8      0.474654     -6.179316      5.906343
     9     -2.379723     -6.547856      4.817636
    10     -5.651345      5.058506      9.654142
    11     -5.817599      5.422970     11.441226
    12     -5.708745      6.897680      9.000282
    13     -4.711715     -3.878506     -2.852751
    14     -5.577589     -2.879056     -1.556921
    15     -4.474679     -2.808059     -4.417634
    16      2.789417     -7.619916     -9.251638
    17      1.103252     -6.915714     -9.600512
    18      3.113692     -7.652113     -7.420682
    19     11.594124      2.315389     -9.944465
    20     10.284271      3.329786     -9.055161
    21     11.825454      3.163451    -11.653172
    22      6.261214     -8.478326     10.460830
    23      4.695482     -8.146005     11.470742
    24      5.597310     -9.341585      8.983495
    25      7.930173     -4.113216      9.068964
    26      8.806670     -3.523689     10.646770
    27      7.391586     -5.981318      9.482867
    28     -6.353571      0.885630     -9.730582
    29     -7.935058      1.293130     -9.018378
    30     -6.666532      0.068780    -11.497721
    31     -2.465531     -5.970374    -11.277593
    32     -2.823500     -4.427458    -10.213255
    33     -3.392026     -7.129517    -10.234269
    34      4.018321     -7.615377     -3.770291
    35      5.211636     -8.936636     -3.237760
    36      2.561335     -7.780738     -2.664463
    37     -1.049121      3.227624      8.422148
    38     -2.696843      4.051023      8.955388
    39     -1.724148      1.746691      7.541922
    40     -9.808703     -1.903395     -5.417714
    41    -10.560657     -3.003094     -4.117178
    42    -11.194087     -1.532061     -6.709046
    43    -10.625252      6.189375     -5.113393
    44    -10.749682      7.536923     -3.763936
    45     -9.347241      6.601909     -6.505600
    46     -8.809127      8.283237      5.999504
    47     -8.216319      9.190972      4.519592
    48     -9.612606      6.803485      5.258545
    49      1.452583     -1.714717     10.779306
    50      2.462935     -1.597174      9.167753
    51      0.291415     -0.209703     10.510572
    52     -1.916218     11.632417      5.761163
    53     -1.196146      9.976308      5.271111
    54     -3.195427     11.132526      7.106459
    55     -8.505591      1.959123     -2.215071
    56     -8.735520      3.580621     -3.212718
    57     -9.189974      0.609280     -3.255667
    58     -6.310536     -6.217276      4.086690
    59     -6.174472     -4.501545      3.282311
    60     -7.632419     -5.783552      5.393462
    61      6.367638     -9.863957      5.557993
    62      6.346789    -11.659310      5.234218
    63      5.574909     -8.951841      4.142707
    64     11.416253     -9.399364      4.937252
    65      9.675810     -9.386642      5.815844
    66     12.457662     -8.956484      6.336339
    67      6.302547      4.154843    -11.111042
    68      6.767075      4.531909    -12.879757
    69      5.859060      2.365896    -10.961946
    70    -10.300474     -9.523545      9.751244
    71     -9.804850     -8.162553     10.904676
    72    -12.108789    -10.012001     10.237546
    73     10.701578      6.134580      2.858001
    74     11.348832      7.657382      1.950917
    75     10.529669      5.102988      1.292824
    76      3.882909     -2.032155      6.034413
    77      5.497880     -2.350636      6.927230
    78      4.332324     -0.450785      4.985734
    79      1.852952      6.778897    -10.622948
    80      0.545211      5.487727    -11.124566
    81      3.551684      5.869436    -10.146835
    82     -3.472752     -2.496680     -7.698109
    83     -4.749927     -1.289572     -8.438580
    84     -2.265198     -1.203049     -7.076216
    85     10.783601     -6.648846     -3.814342
    86     10.396376     -6.412217     -1.981223
    87      9.514815     -5.964467     -4.879908
    88     10.055654      8.602904      9.133647
    89      9.530082      9.804598     10.525002
    90     11.392089      9.530975      8.233728
    91      4.061522      0.106819     -8.995410
    92      3.158766     -0.994363    -10.157573
    93      5.106943     -0.893160     -7.925300
    94      0.949423     10.943650     -8.398489
    95      1.813627     12.538333     -9.032776
    96      0.954119      9.544659     -9.708647
    97      8.702720      2.271615     -4.942728
    98      7.090077      3.192481     -4.832840
    99     10.146248      3.540706     -5.094830
   100      6.130198     -3.262476     -5.645519
   101      5.218127     -4.787967     -5.541612
   102      6.757670     -2.636249     -4.078998
   103      8.834608     11.390058     -9.580033
   104      7.733249     12.707803    -10.273736
   105      7.754973     10.084187     -8.805326
   106     -0.505235     -6.638589     -1.084021
   107     -0.494721     -6.322394      0.764971
   108     -1.745708     -5.338431     -1.719689
   109     -6.433601     -2.090547      9.598089
   110     -5.451249     -1.581614      8.114115
   111     -5.801106     -3.553955     10.501195
   112      8.010118    -11.362952     -2.580952
   113      9.160572    -10.422628     -3.663296
   114      7.471686    -12.759633     -3.623136
   115      1.263452      7.104817      5.302069
   116      0.362145      5.894662      6.483667
   117      2.934287      7.401384      5.943268
   118      1.438492     -8.031837      8.569379
   119     -0.035306     -7.550113      9.423390
   120      0.992883     -9.774223      8.129135
   121     -2.411890      4.749713     -6.883242
   122     -1.893307      3.184873     -6.002570
   123     -1.229308      6.029275     -6.289232
   124     -4.116152    -11.405771     -8.865928
   125     -2.478368    -11.770932     -8.184614
   126     -5.050044    -10.093902     -7.851563
   127      5.365983      8.784401     -6.216668
   128      4.858709      7.200796     -5.176385
   129      3.598664      9.366925     -6.619813
   130     -6.544758      6.633328     -8.298078
   131     -5.701617      8.334972     -8.190392
   132     -5.174100      5.582846     -7.377217
   133      3.175428      4.700509     -3.699194
   134      1.939679      3.281744     -4.296954
   135      2.254135      5.445567     -2.231307
   136      6.623592      8.316203      5.111377
   137      7.381314      8.047760      6.826895
   138      8.019841      7.524965      4.087185
   139    -11.428773      9.551810     -0.850942
   140    -10.029206     10.523599     -0.225153
   141    -12.772772     10.887338     -0.982333
   142     10.185121     -2.404525    -10.117832
   143      8.840396     -2.901812     -9.070956
   144     10.509513     -0.523785     -9.963902
   145      7.806986     -0.944555     -1.052500
   146      8.409351      0.571742     -2.094278
   147      6.606505     -0.130104      0.080468
   148     -5.189891     10.709080      9.475242
   149     -4.938331     11.059707     11.266950
   150     -6.885193     11.383315      9.087279
   151     -7.119137     -8.123959     -5.454075
   152     -6.193141     -6.886546     -4.312039
   153     -8.881535     -7.906780     -5.019345
   154    -10.466407     -4.473569      7.604095
   155     -9.463960     -3.746611      8.886350
   156    -12.265103     -4.488058      8.209199
   157      9.282951      1.384903      5.937070
   158     10.389055      0.492960      4.679669
   159     10.323436      2.775392      6.595212
   160      5.160961     -5.452835      2.365402
   161      4.287834     -4.534109      3.683037
   162      3.875702     -5.590666      1.032182
   163     -2.436711    -11.425566      0.436230
   164     -2.453817    -11.308452      2.380093
   165     -2.053754     -9.671526     -0.177228
   166     -3.042440     -0.682038      5.915232
   167     -4.081466     -0.311888      4.310709
   168     -2.407041     -2.515012      5.807986
   169     10.552682     -5.666287      1.300343
   170      8.769333     -5.319277      1.868491
   171     11.249999     -6.822767      2.498998
   172    -10.795142     -1.390081      3.367949
   173    -10.653926     -2.395345      5.084208
   174    -11.583330     -2.742378      2.237559
   175     -8.602217     -5.861027    -10.232553
   176     -7.780558     -5.634245     -8.619132
   177    -10.119786     -4.872946     -9.999979
 
  MM charges 
  ---------- 
     1     -0.674440
     2      0.337220
     3      0.337220
     4     -0.674440
     5      0.337220
     6      0.337220
     7     -0.674440
     8      0.337220
     9      0.337220
    10     -0.674440
    11      0.337220
    12      0.337220
    13     -0.674440
    14      0.337220
    15      0.337220
    16     -0.674440
    17      0.337220
    18      0.337220
    19     -0.674440
    20      0.337220
    21      0.337220
    22     -0.674440
    23      0.337220
    24      0.337220
    25     -0.674440
    26      0.337220
    27      0.337220
    28     -0.674440
    29      0.337220
    30      0.337220
    31     -0.674440
    32      0.337220
    33      0.337220
    34     -0.674440
    35      0.337220
    36      0.337220
    37     -0.674440
    38      0.337220
    39      0.337220
    40     -0.674440
    41      0.337220
    42      0.337220
    43     -0.674440
    44      0.337220
    45      0.337220
    46     -0.674440
    47      0.337220
    48      0.337220
    49     -0.674440
    50      0.337220
    51      0.337220
    52     -0.674440
    53      0.337220
    54      0.337220
    55     -0.674440
    56      0.337220
    57      0.337220
    58     -0.674440
    59      0.337220
    60      0.337220
    61     -0.674440
    62      0.337220
    63      0.337220
    64     -0.674440
    65      0.337220
    66      0.337220
    67     -0.674440
    68      0.337220
    69      0.337220
    70     -0.674440
    71      0.337220
    72      0.337220
    73     -0.674440
    74      0.337220
    75      0.337220
    76     -0.674440
    77      0.337220
    78      0.337220
    79     -0.674440
    80      0.337220
    81      0.337220
    82     -0.674440
    83      0.337220
    84      0.337220
    85     -0.674440
    86      0.337220
    87      0.337220
    88     -0.674440
    89      0.337220
    90      0.337220
    91     -0.674440
    92      0.337220
    93      0.337220
    94     -0.674440
    95      0.337220
    96      0.337220
    97     -0.674440
    98      0.337220
    99      0.337220
   100     -0.674440
   101      0.337220
   102      0.337220
   103     -0.674440
   104      0.337220
   105      0.337220
   106     -0.674440
   107      0.337220
   108      0.337220
   109     -0.674440
   110      0.337220
   111      0.337220
   112     -0.674440
   113      0.337220
   114      0.337220
   115     -0.674440
   116      0.337220
   117      0.337220
   118     -0.674440
   119      0.337220
   120      0.337220
   121     -0.674440
   122      0.337220
   123      0.337220
   124     -0.674440
   125      0.337220
   126      0.337220
   127     -0.674440
   128      0.337220
   129      0.337220
   130     -0.674440
   131      0.337220
   132      0.337220
   133     -0.674440
   134      0.337220
   135      0.337220
   136     -0.674440
   137      0.337220
   138      0.337220
   139     -0.674440
   140      0.337220
   141      0.337220
   142     -0.674440
   143      0.337220
   144      0.337220
   145     -0.674440
   146      0.337220
   147      0.337220
   148     -0.674440
   149      0.337220
   150      0.337220
   151     -0.674440
   152      0.337220
   153      0.337220
   154     -0.674440
   155      0.337220
   156      0.337220
   157     -0.674440
   158      0.337220
   159      0.337220
   160     -0.674440
   161      0.337220
   162      0.337220
   163     -0.674440
   164      0.337220
   165      0.337220
   166     -0.674440
   167      0.337220
   168      0.337220
   169     -0.674440
   170      0.337220
   171      0.337220
   172     -0.674440
   173      0.337220
   174      0.337220
   175     -0.674440
   176      0.337220
   177      0.337220
 
  MM isotropic polarizabilities in au 
  ----------------------------------- 
     1      5.739350
     2      2.308390
     3      2.308390
     4      5.739350
     5      2.308390
     6      2.308390
     7      5.739350
     8      2.308390
     9      2.308390
    10      5.739350
    11      2.308390
    12      2.308390
    13      5.739350
    14      2.308390
    15      2.308390
    16      5.739350
    17      2.308390
    18      2.308390
    19      5.739350
    20      2.308390
    21      2.308390
    22      5.739350
    23      2.308390
    24      2.308390
    25      5.739350
    26      2.308390
    27      2.308390
    28      5.739350
    29      2.308390
    30      2.308390
    31      5.739350
    32      2.308390
    33      2.308390
    34      5.739350
    35      2.308390
    36      2.308390
    37      5.739350
    38      2.308390
    39      2.308390
    40      5.739350
    41      2.308390
    42      2.308390
    43      5.739350
    44      2.308390
    45      2.308390
    46      5.739350
    47      2.308390
    48      2.308390
    49      5.739350
    50      2.308390
    51      2.308390
    52      5.739350
    53      2.308390
    54      2.308390
    55      5.739350
    56      2.308390
    57      2.308390
    58      5.739350
    59      2.308390
    60      2.308390
    61      5.739350
    62      2.308390
    63      2.308390
    64      5.739350
    65      2.308390
    66      2.308390
    67      5.739350
    68      2.308390
    69      2.308390
    70      5.739350
    71      2.308390
    72      2.308390
    73      5.739350
    74      2.308390
    75      2.308390
    76      5.739350
    77      2.308390
    78      2.308390
    79      5.739350
    80      2.308390
    81      2.308390
    82      5.739350
    83      2.308390
    84      2.308390
    85      5.739350
    86      2.308390
    87      2.308390
    88      5.739350
    89      2.308390
    90      2.308390
    91      5.739350
    92      2.308390
    93      2.308390
    94      5.739350
    95      2.308390
    96      2.308390
    97      5.739350
    98      2.308390
    99      2.308390
   100      5.739350
   101      2.308390
   102      2.308390
   103      5.739350
   104      2.308390
   105      2.308390
   106      5.739350
   107      2.308390
   108      2.308390
   109      5.739350
   110      2.308390
   111      2.308390
   112      5.739350
   113      2.308390
   114      2.308390
   115      5.739350
   116      2.308390
   117      2.308390
   118      5.739350
   119      2.308390
   120      2.308390
   121      5.739350
   122      2.308390
   123      2.308390
   124      5.739350
   125      2.308390
   126      2.308390
   127      5.739350
   128      2.308390
   129      2.308390
   130      5.739350
   131      2.308390
   132      2.308390
   133      5.739350
   134      2.308390
   135      2.308390
   136      5.739350
   137      2.308390
   138      2.308390
   139      5.739350
   140      2.308390
   141      2.308390
   142      5.739350
   143      2.308390
   144      2.308390
   145      5.739350
   146      2.308390
   147      2.308390
   148      5.739350
   149      2.308390
   150      2.308390
   151      5.739350
   152      2.308390
   153      2.308390
   154      5.739350
   155      2.308390
   156      2.308390
   157      5.739350
   158      2.308390
   159      2.308390
   160      5.739350
   161      2.308390
   162      2.308390
   163      5.739350
   164      2.308390
   165      2.308390
   166      5.739350
   167      2.308390
   168      2.308390
   169      5.739350
   170      2.308390
   171      2.308390
   172      5.739350
   173      2.308390
   174      2.308390
   175      5.739350
   176      2.308390
   177      2.308390


     ************************************************************************
     ************************** Output from HERINT **************************
     ************************************************************************



                      Nuclear contribution to dipole moments
                      --------------------------------------

                 au               Debye          C m (/(10**-30)

      x     -8.28289826       -21.05302608       -70.22533594
      y     89.91159489       228.53246432       762.30224684
      z      1.40418745         3.56908827        11.90519701


  Time used in HUCKEL     is       0.24 seconds
  Time used in OVERLAP    is       0.20 seconds
  Time used in POPOVLP    is       0.20 seconds
  Time used in DIPLEN     is       0.18 seconds
  Time used in QUADRUP    is       0.39 seconds
  Time used in KINENE     is       0.20 seconds

 Threshold for neglecting two-electron integrals:  1.00D-12
 HERMIT - Number of two-electron integrals written:    24625761 ( 32.8% )
 HERMIT - Megabytes written:                            281.976

  Time used in TWOINT     is      13.57 seconds
  Total CPU  time used in HERMIT:  15.03 seconds
  Total wall time used in HERMIT:   5.72 seconds


                        .----------------------------------.
                        | End of Integral Section (HERMIT) |
                        `----------------------------------'



                   .--------------------------------------------.
                   | Starting in Wave Function Section (SIRIUS) |
                   `--------------------------------------------'

NCCEXCI for singlet:   15
 CCSD_INPUT: core-val requested
 Requested number of core orbs per sym
                     1
 Indices of requested core orbs
                     1

 *** Output from Huckel module :

     Using EWMO model:          T
     Using EHT  model:          F
     Number of Huckel orbitals each symmetry:   36

 EWMO - Energy Weighted Maximum Overlap - is a Huckel type method,
        which normally is better than Extended Huckel Theory.
 Reference: Linderberg and Ohrn, Propagators in Quantum Chemistry (Wiley, 1973)

 Huckel EWMO eigenvalues for symmetry :  1
          -20.684519     -20.683867     -20.683841     -20.683706     -15.674311
           -1.669734      -1.587515      -1.561691      -1.552785      -1.476195
           -0.832252      -0.804408      -0.776760      -0.757096      -0.730240
           -0.720522      -0.697770      -0.674371      -0.666571      -0.647800
           -0.618843      -0.615595      -0.613977      -0.608625      -0.528573
           -0.269738      -0.259970      -0.254013      -0.240779      -0.195077
           -0.193622      -0.187425      -0.172663      -0.161871      -0.147663
           -0.141413

 **********************************************************************
 *SIRIUS* a direct, restricted step, second order MCSCF program       *
 **********************************************************************

 
     Date and time (Linux)  : Sat Dec 22 18:10:38 2018
     Host name              : n-62-24-2                               

 Title lines from ".mol" input file:
                                                                             
                                                                             

 Print level on unit LUPRI =   2 is   0
 Print level on unit LUW4  =   2 is  11

@    (Integral direct) CC calculation.

@    This is a combination run starting with
@              a restricted, closed shell Hartree-Fock calculation


 Initial molecular orbitals are obtained according to
 ".MOSTART EWMO  " input option

@    QM part is embedded in an environment :

@         Model: QMMM

     Wave function specification
     ============================

     For the specification of the Coupled Cluster: see later.

@    Wave function type        --- CC ---
@    Number of closed shell electrons          50
@    Number of electrons in active shells       0
@    Total charge of the molecule               0

@    Spin multiplicity and 2 M_S                1         0
@    Total number of symmetries                 1 (point group: C1 )
@    Reference state symmetry                   1 (irrep name : A  )

     Orbital specifications
     ======================
@    Abelian symmetry species          All |    1
@                                          |  A  
                                       --- |  ---
@    Occupied SCF orbitals              25 |   25
@    Secondary orbitals                131 |  131
@    Total number of orbitals          156 |  156
@    Number of basis functions         156 |  156

     Optimization information
     ========================
@    Number of configurations                 1
@    Number of orbital rotations           3275
     ------------------------------------------
@    Total number of variables             3276

     Maximum number of Fock   iterations      0
     Maximum number of DIIS   iterations     60
     Maximum number of QC-SCF iterations     60
     Threshold for SCF convergence     1.00D-07


 Changes of defaults for CC:
 ---------------------------


 -Implicit frozen core calculation
 -Excitation energies calculated
 -One-photon absorption strengths will be calculated
 -Oscillator strengths calculated
  
* Read MO coefficients from SIRIUS.RST with label "NEWORB  " and header info: 22Dec18  REORTHO 


 ***********************************************
 ***** DIIS acceleration of SCF iterations *****
 ***********************************************

 C1-DIIS algorithm; max error vectors =    8
 -----------------------------------------------------------------------------

 *** DIIS iteration number    1
 RDSUPM called. NFMAT, ISYMDM(1:NFMAT)                     1
                     1

Calculating AOSUPINT
     (Precalculated two-electron integrals are transformed to P-supermatrix elements.
      Threshold for discarding integrals :  1.00D-12 )
  CPU  time used in FORMSUP    is   4.58 seconds
  WALL time used in FORMSUP    is   5.14 seconds

 ITDIIS, energy, error norm, change in energy, scr.thr., difden:
@ DIIS iter.   1    -359.924303934        3.69255D+00   -3.60D+02  -20    F

 (DIIS_RED) Control Parameters C2DIIS =         F NEVC =    1


 (DIIS_RED) B matrix:

               Column   1
       1      13.63492954
    ==== End of matrix output ====

 DIIS C vector; C2DIIS = F, LAMBDA = -1.36D+01
    1.000000
* Read MO coefficients from SIRIUS.RST with label "NEWORB  " and header info: 22Dec18  DIIS   1
      Virial theorem: -V/T =      1.998793
@      MULPOP N      -0.35; H       0.17; H       0.16; H       0.17; O      -0.62; O      -0.82; O      -0.62; O      -0.61; H       0.33; H       0.31; 
@             H       0.32; H       0.31; H       0.33; H       0.31; H       0.32; H       0.31; 
   1  Level shift: doubly occupied orbital energies shifted by -2.00D-01

 DIIS Fock eigenvalues in symmetry 1
      -20.76169      -20.73089      -20.71493      -20.57005      -16.04917
       -1.59045       -1.53859       -1.52404       -1.50506       -1.46200
       -1.00068       -0.98459       -0.96078       -0.90921       -0.90238
       -0.90231       -0.83392       -0.80837       -0.79714       -0.79121
       -0.78790       -0.76705       -0.74527       -0.71995       -0.69949
        0.06604        0.11580        0.13052        0.16211        0.18663
        0.20044        0.22582        0.23525        0.25993        0.31077
        0.31942        0.37779        0.40267        0.45621        0.48425
        0.49856        0.51704        0.54232        0.55710        0.56468
        0.56639        0.60423        0.78898        0.82426        0.84305
        0.91003        0.92756        0.94551        0.95263        0.97639
        1.00844        1.02224        1.04459        1.06183        1.06545
        1.10312        1.11869        1.17776        1.19347        1.21917
        1.33551        1.33829        1.38533        1.38931        1.41500
        1.41969        1.43153        1.45892        1.47870        1.49240
        1.50093        1.60464        1.62859        1.63481        1.66874
        1.70157        1.72131        1.73280        1.78759        1.83213
        1.84678        1.85332        1.86578        1.90135        2.01458
        2.04584        2.08888        2.09767        2.11964        2.23962
        2.25001        2.26384        2.28944        2.36399        2.45580
        2.50202        2.54809        2.55938        2.59220        2.60133
        2.72593        2.72748        2.73123        2.77179        2.78502
        2.80420        2.82535        2.84893        2.97070        3.27006
        3.32955        3.35702        3.35999        3.36859        3.37463
        3.42729        3.44111        3.44687        3.46714        3.53824
        3.55880        3.56138        3.60458        3.88905        3.90088
        3.95280        4.05222        4.11860        4.13572        4.16579
        4.18726        4.41304        4.95651        5.03242        5.25769
        5.27904        5.31712        5.39119        5.59361        5.69033
        5.69590        5.71898        5.91623        5.95111        6.01492
        6.13925       36.75331       51.49653       51.50910       51.51763
       51.68172
 Time used in FCKEIG, thr_jaco:   3.72D-01  4.10D-02  1.61D-04
 CPU and wall times used in FCKEIG, THR_FCKEIG:   3.74D-01  4.10D-02  3.69D-02
 -----------------------------------------------------------------------------

 *** DIIS iteration number    2
 RDSUPM called. NFMAT, ISYMDM(1:NFMAT)                     1
                     1

 ITDIIS, energy, error norm, change in energy, scr.thr., difden:
@ DIIS iter.   2    -360.679975101        9.41756D-01   -7.56D-01  -20    F

 (DIIS_RED) Control Parameters C2DIIS =         F NEVC =    2


 (DIIS_RED) B matrix:

               Column   1     Column   2
       1      13.63492954
       2       0.76290550     0.88690475
    ==== End of matrix output ====

 DIIS C vector; C2DIIS = F, LAMBDA = -8.86D-01
    0.009541    0.990459
* Read MO coefficients from SIRIUS.RST with label "NEWORB  " and header info: 22Dec18  DIIS   2
      Virial theorem: -V/T =      2.005363
@      MULPOP N      -0.65; H       0.21; H       0.24; H       0.23; O      -0.58; O      -0.75; O      -0.57; O      -0.66; H       0.27; H       0.32; 
@             H       0.32; H       0.34; H       0.33; H       0.27; H       0.36; H       0.32; 
   2  Level shift: doubly occupied orbital energies shifted by -1.00D-01

 DIIS Fock eigenvalues in symmetry 1
      -20.76572      -20.71468      -20.71115      -20.70028      -15.56497
       -1.47780       -1.44948       -1.43547       -1.43178       -1.25753
       -0.83580       -0.83256       -0.79437       -0.78216       -0.75084
       -0.74647       -0.72050       -0.70512       -0.70211       -0.69576
       -0.67244       -0.67137       -0.64788       -0.63971       -0.56237
        0.10913        0.15040        0.15673        0.17749        0.21629
        0.22348        0.25354        0.27985        0.29137        0.32222
        0.34314        0.43823        0.46048        0.48457        0.51795
        0.52948        0.55181        0.56789        0.58370        0.59760
        0.60078        0.67685        0.89701        0.90534        0.92007
        0.93386        0.93655        0.95249        0.95673        0.95938
        1.02905        1.05401        1.06457        1.07048        1.07919
        1.11818        1.14239        1.23032        1.30020        1.30839
        1.35151        1.37197        1.39943        1.42324        1.44400
        1.46066        1.49522        1.50526        1.50914        1.53171
        1.53523        1.66080        1.67519        1.69175        1.69668
        1.73397        1.77887        1.81748        1.84061        1.88385
        1.90147        1.91403        1.94217        1.97936        2.12831
        2.13200        2.14482        2.16846        2.17115        2.23353
        2.29957        2.31742        2.35850        2.41729        2.55548
        2.56603        2.60530        2.61652        2.68197        2.69151
        2.74078        2.76486        2.80505        2.84016        2.85295
        2.93792        2.98474        2.99106        3.11525        3.27128
        3.37095        3.37714        3.39216        3.39287        3.44556
        3.44630        3.45518        3.46683        3.47298        3.54471
        3.57276        3.58068        3.63572        3.90456        3.91765
        3.96428        3.98800        4.05940        4.13991        4.18226
        4.21130        4.62037        5.19278        5.23826        5.25633
        5.26146        5.27083        5.30526        5.45022        5.67263
        5.68601        5.71646        5.91977        5.93985        6.01127
        6.03340       37.13075       51.39139       51.42193       51.43032
       51.46107
 Time used in FCKEIG, thr_jaco:   2.81D-01  2.90D-02  4.11D-05
 CPU and wall times used in FCKEIG, THR_FCKEIG:   2.82D-01  2.90D-02  9.42D-03
 -----------------------------------------------------------------------------

 *** DIIS iteration number    3
 RDSUPM called. NFMAT, ISYMDM(1:NFMAT)                     1
                     1

 ITDIIS, energy, error norm, change in energy, scr.thr., difden:
@ DIIS iter.   3    -360.741319148        3.56380D-01   -6.13D-02  -20    F

 (DIIS_RED) Control Parameters C2DIIS =         F NEVC =    3


 (DIIS_RED) B matrix:

               Column   1     Column   2     Column   3
       1      13.63492954
       2       0.76290550     0.88690475
       3       0.67846766     0.05878691     0.12700682
    ==== End of matrix output ====

 DIIS C vector; C2DIIS = F, LAMBDA = -9.62D-02
   -0.045487    0.083857    0.961630
* Read MO coefficients from SIRIUS.RST with label "NEWORB  " and header info: 22Dec18  DIIS   3
      Virial theorem: -V/T =      2.003002
@      MULPOP N      -0.57; H       0.18; H       0.22; H       0.20; O      -0.63; O      -0.85; O      -0.64; O      -0.74; H       0.29; H       0.36; 
@             H       0.39; H       0.39; H       0.36; H       0.29; H       0.41; H       0.35; 
   3  Level shift: doubly occupied orbital energies shifted by -5.00D-02

 DIIS Fock eigenvalues in symmetry 1
      -20.63208      -20.61007      -20.60794      -20.57815      -15.64471
       -1.41519       -1.36903       -1.36167       -1.35280       -1.23946
       -0.76832       -0.75365       -0.72610       -0.72036       -0.71271
       -0.70733       -0.66090       -0.63866       -0.62444       -0.60911
       -0.60039       -0.57182       -0.56648       -0.56088       -0.53245
        0.11472        0.15605        0.16150        0.18592        0.21974
        0.22787        0.25797        0.28139        0.29532        0.32954
        0.34866        0.44171        0.46449        0.49771        0.52700
        0.53872        0.55998        0.58045        0.59187        0.60561
        0.60918        0.67933        0.89788        0.90519        0.92804
        0.94623        0.96190        0.96714        0.97470        0.97609
        1.04105        1.06457        1.08260        1.08460        1.08849
        1.13354        1.15004        1.23714        1.30076        1.31150
        1.36428        1.38099        1.41655        1.43725        1.45339
        1.47115        1.50561        1.51716        1.52389        1.54205
        1.54754        1.67032        1.68493        1.70019        1.71335
        1.74648        1.78642        1.82402        1.85043        1.89120
        1.90947        1.92105        1.94897        1.98670        2.13124
        2.14056        2.14836        2.16472        2.17965        2.25529
        2.31410        2.33088        2.37189        2.43496        2.56241
        2.57616        2.61442        2.62781        2.69054        2.70002
        2.75202        2.77925        2.81135        2.84809        2.85845
        2.92989        2.96209        2.97062        3.09993        3.32867
        3.39728        3.40108        3.41197        3.42609        3.45578
        3.46976        3.47449        3.48854        3.49277        3.53598
        3.59980        3.60478        3.65517        3.92729        3.94026
        3.98753        4.04402        4.11118        4.16913        4.20711
        4.23278        4.56558        5.14429        5.21849        5.28356
        5.30007        5.31956        5.33746        5.53095        5.70649
        5.71522        5.74172        5.94857        5.97550        6.05774
        6.09098       37.00525       51.46989       51.47519       51.49406
       51.52806
 Time used in FCKEIG, thr_jaco:   2.52D-01  2.60D-02  1.56D-05
 CPU and wall times used in FCKEIG, THR_FCKEIG:   2.52D-01  2.60D-02  3.56D-03
 -----------------------------------------------------------------------------

 *** DIIS iteration number    4
 RDSUPM called. NFMAT, ISYMDM(1:NFMAT)                     1
                     1

 ITDIIS, energy, error norm, change in energy, scr.thr., difden:
@ DIIS iter.   4    -360.750786677        1.14570D-01   -9.47D-03  -20    F

 (DIIS_RED) Control Parameters C2DIIS =         F NEVC =    4


 (DIIS_RED) B matrix:

               Column   1     Column   2     Column   3     Column   4
       1      13.63492954
       2       0.76290550     0.88690475
       3       0.67846766     0.05878691     0.12700682
       4       0.01116183     0.08422181    -0.00294773     0.01312635
    ==== End of matrix output ====

 DIIS C vector; C2DIIS = F, LAMBDA = -4.64D-03
   -0.000393   -0.095460    0.105796    0.990057
* Read MO coefficients from SIRIUS.RST with label "NEWORB  " and header info: 22Dec18  DIIS   4
      Virial theorem: -V/T =      2.004036
@      MULPOP N      -0.64; H       0.20; H       0.23; H       0.21; O      -0.65; O      -0.85; O      -0.64; O      -0.76; H       0.29; H       0.37; 
@             H       0.40; H       0.39; H       0.37; H       0.29; H       0.42; H       0.36; 
   4  Level shift: doubly occupied orbital energies shifted by -2.50D-02

 DIIS Fock eigenvalues in symmetry 1
      -20.61526      -20.59686      -20.59462      -20.59109      -15.59112
       -1.39430       -1.34765       -1.34206       -1.33925       -1.20485
       -0.74648       -0.73522       -0.70403       -0.69436       -0.68229
       -0.67648       -0.63693       -0.61549       -0.60243       -0.59096
       -0.57538       -0.54926       -0.54642       -0.53773       -0.49739
        0.11447        0.15635        0.16031        0.18524        0.22009
        0.22699        0.25848        0.28431        0.29675        0.33068
        0.34694        0.44552        0.46841        0.49889        0.52633
        0.53771        0.56016        0.57930        0.58925        0.60363
        0.60696        0.68298        0.90274        0.90977        0.93326
        0.94628        0.95948        0.96792        0.97360        0.97514
        1.04087        1.06493        1.08064        1.08316        1.08803
        1.13275        1.15047        1.23689        1.30583        1.31440
        1.36393        1.38206        1.41340        1.43608        1.45175
        1.46958        1.50258        1.51514        1.52238        1.53947
        1.54542        1.66786        1.68271        1.69952        1.71455
        1.74587        1.78767        1.82722        1.84897        1.89135
        1.90789        1.92078        1.95238        1.99047        2.13617
        2.14023        2.14740        2.17060        2.17642        2.25018
        2.30991        2.32746        2.36804        2.43640        2.56651
        2.57315        2.61208        2.62563        2.69398        2.70330
        2.74917        2.78233        2.81005        2.84636        2.85705
        2.93738        2.97270        2.98048        3.10831        3.31740
        3.39426        3.39875        3.40968        3.42899        3.45431
        3.46751        3.47019        3.48918        3.49063        3.53683
        3.59591        3.60250        3.65300        3.92489        3.93690
        3.98399        4.03368        4.10139        4.16505        4.20492
        4.23038        4.58164        5.15955        5.23221        5.27952
        5.29508        5.30332        5.32837        5.51197        5.70028
        5.71068        5.73748        5.94350        5.96795        6.05291
        6.07232       37.03341       51.45974       51.46255       51.48534
       51.49149
 Time used in FCKEIG, thr_jaco:   2.40D-01  2.40D-02  5.01D-06
 CPU and wall times used in FCKEIG, THR_FCKEIG:   2.40D-01  2.40D-02  1.15D-03
 -----------------------------------------------------------------------------

 *** DIIS iteration number    5
 RDSUPM called. NFMAT, ISYMDM(1:NFMAT)                     1
                     1

 ITDIIS, energy, error norm, change in energy, scr.thr., difden:
@ DIIS iter.   5    -360.752064917        2.74167D-02   -1.28D-03  -20    F

 (DIIS_RED) Control Parameters C2DIIS =         F NEVC =    5


 (DIIS_RED) B matrix:

               Column   1     Column   2     Column   3     Column   4     Column   5
       1      13.63492954
       2       0.76290550     0.88690475
       3       0.67846766     0.05878691     0.12700682
       4       0.01116183     0.08422181    -0.00294773     0.01312635
       5       0.01698312     0.00752269     0.00573973     0.00111773     0.00075167
    ==== End of matrix output ====

 DIIS C vector; C2DIIS = F, LAMBDA = -4.61D-04
    0.001519    0.001854   -0.059123   -0.088764    1.144514
* Read MO coefficients from SIRIUS.RST with label "NEWORB  " and header info: 22Dec18  DIIS   5
      Virial theorem: -V/T =      2.003622
@      MULPOP N      -0.63; H       0.20; H       0.23; H       0.21; O      -0.66; O      -0.87; O      -0.65; O      -0.78; H       0.30; H       0.37; 
@             H       0.41; H       0.40; H       0.38; H       0.30; H       0.43; H       0.37; 

 DIIS Fock eigenvalues in symmetry 1
      -20.58939      -20.56924      -20.56767      -20.55808      -15.55965
       -1.36899       -1.32181       -1.31609       -1.31132       -1.17774
       -0.72159       -0.70874       -0.67853       -0.66885       -0.65584
       -0.65018       -0.61203       -0.59034       -0.57697       -0.56319
       -0.54925       -0.52049       -0.51968       -0.51106       -0.47005
        0.11450        0.15653        0.16015        0.18556        0.22031
        0.22684        0.25865        0.28480        0.29714        0.33121
        0.34681        0.44612        0.46902        0.49958        0.52630
        0.53769        0.56031        0.57996        0.58892        0.60347
        0.60669        0.68378        0.90433        0.91102        0.93460
        0.94760        0.96161        0.96920        0.97527        0.97624
        1.04151        1.06523        1.08137        1.08359        1.08856
        1.13347        1.15092        1.23750        1.30693        1.31519
        1.36457        1.38286        1.41413        1.43692        1.45153
        1.46945        1.50206        1.51508        1.52291        1.53903
        1.54536        1.66743        1.68231        1.69959        1.71513
        1.74612        1.78817        1.82768        1.84886        1.89161
        1.90761        1.92059        1.95307        1.99122        2.13640
        2.14058        2.14766        2.17168        2.17581        2.25078
        2.30973        2.32726        2.36766        2.43736        2.56729
        2.57263        2.61146        2.62516        2.69452        2.70382
        2.74904        2.78236        2.80957        2.84582        2.85643
        2.93881        2.97443        2.98213        3.10993        3.32070
        3.39534        3.39948        3.40990        3.43169        3.45687
        3.46823        3.47106        3.49006        3.49264        3.53942
        3.59679        3.60310        3.65314        3.92557        3.93731
        3.98450        4.03684        4.10430        4.16599        4.20564
        4.23055        4.58499        5.16263        5.23519        5.28022
        5.29668        5.30751        5.33066        5.51664        5.70165
        5.71171        5.73792        5.94434        5.96914        6.05307
        6.07655       37.03973       51.46191       51.46486       51.48664
       51.49896
 Time used in FCKEIG, thr_jaco:   2.28D-01  2.30D-02  1.20D-06
 CPU and wall times used in FCKEIG, THR_FCKEIG:   2.28D-01  2.30D-02  2.74D-04
 -----------------------------------------------------------------------------

 *** DIIS iteration number    6
 RDSUPM called. NFMAT, ISYMDM(1:NFMAT)                     1
                     1

 ITDIIS, energy, error norm, change in energy, scr.thr., difden:
@ DIIS iter.   6    -360.752174105        9.59884D-03   -1.09D-04  -20    F

 (DIIS_RED) Control Parameters C2DIIS =         F NEVC =    6


 (DIIS_RED) B matrix:

               Column   1     Column   2     Column   3     Column   4     Column   5     Column   6
       1      13.63492954
       2       0.76290550     0.88690475
       3       0.67846766     0.05878691     0.12700682
       4       0.01116183     0.08422181    -0.00294773     0.01312635
       5       0.01698312     0.00752269     0.00573973     0.00111773     0.00075167
       6      -0.00255407    -0.00038901     0.00072801     0.00032426     0.00007649     0.00009214
    ==== End of matrix output ====

 DIIS C vector; C2DIIS = F, LAMBDA = -4.30D-05
    0.000679    0.009817   -0.024142   -0.104777    0.189179    0.929244
* Read MO coefficients from SIRIUS.RST with label "NEWORB  " and header info: 22Dec18  DIIS   6
      Virial theorem: -V/T =      2.003792
@      MULPOP N      -0.63; H       0.20; H       0.23; H       0.21; O      -0.66; O      -0.88; O      -0.65; O      -0.78; H       0.30; H       0.38; 
@             H       0.41; H       0.40; H       0.38; H       0.30; H       0.43; H       0.37; 

 DIIS Fock eigenvalues in symmetry 1
      -20.58951      -20.57004      -20.56816      -20.56057      -15.56381
       -1.36896       -1.32187       -1.31627       -1.31194       -1.17903
       -0.72171       -0.70952       -0.67880       -0.66920       -0.65687
       -0.65115       -0.61243       -0.59074       -0.57740       -0.56385
       -0.54906       -0.52088       -0.51956       -0.51112       -0.47122
        0.11438        0.15641        0.16005        0.18544        0.22012
        0.22674        0.25854        0.28455        0.29697        0.33099
        0.34668        0.44577        0.46865        0.49928        0.52613
        0.53754        0.56012        0.57967        0.58877        0.60330
        0.60649        0.68343        0.90362        0.91040        0.93401
        0.94740        0.96141        0.96911        0.97500        0.97618
        1.04125        1.06501        1.08106        1.08335        1.08823
        1.13314        1.15062        1.23715        1.30631        1.31472
        1.36446        1.38250        1.41387        1.43659        1.45132
        1.46922        1.50186        1.51483        1.52259        1.53876
        1.54516        1.66723        1.68209        1.69928        1.71487
        1.74585        1.78778        1.82729        1.84860        1.89123
        1.90731        1.92026        1.95264        1.99079        2.13591
        2.14009        2.14716        2.17088        2.17556        2.25034
        2.30945        2.32701        2.36747        2.43686        2.56679
        2.57238        2.61115        2.62492        2.69419        2.70343
        2.74873        2.78214        2.80922        2.84552        2.85603
        2.93788        2.97314        2.98088        3.10891        3.31993
        3.39501        3.39930        3.40982        3.43063        3.45567
        3.46803        3.47075        3.48987        3.49166        3.53815
        3.59651        3.60292        3.65304        3.92538        3.93713
        3.98428        4.03602        4.10346        4.16569        4.20546
        4.23048        4.58277        5.16056        5.23324        5.28016
        5.29641        5.30644        5.33000        5.51535        5.70122
        5.71143        5.73780        5.94403        5.96866        6.05295
        6.07525       37.03566       51.46132       51.46418       51.48643
       51.49659
 Time used in FCKEIG, thr_jaco:   2.26D-01  2.30D-02  4.19D-07
 CPU and wall times used in FCKEIG, THR_FCKEIG:   2.26D-01  2.30D-02  9.60D-05
 -----------------------------------------------------------------------------

 *** DIIS iteration number    7
 RDSUPM called. NFMAT, ISYMDM(1:NFMAT)                     1
                     1

 ITDIIS, energy, error norm, change in energy, scr.thr., difden:
@ DIIS iter.   7    -360.752183645        2.64024D-03   -9.54D-06  -20    F

 (DIIS_RED) Control Parameters C2DIIS =         F NEVC =    7


 (DIIS_RED) B matrix:

               Column   1     Column   2     Column   3     Column   4     Column   5     Column   6
       1      13.63492954
       2       0.76290550     0.88690475
       3       0.67846766     0.05878691     0.12700682
       4       0.01116183     0.08422181    -0.00294773     0.01312635
       5       0.01698312     0.00752269     0.00573973     0.00111773     0.00075167
       6      -0.00255407    -0.00038901     0.00072801     0.00032426     0.00007649     0.00009214
       7       0.00074887    -0.00003630     0.00009899    -0.00000534     0.00004672    -0.00000036

               Column   7
       7       0.00000697
    ==== End of matrix output ====

 DIIS C vector; C2DIIS = F, LAMBDA = -1.53D-06
   -0.000252   -0.001531    0.008783    0.026174   -0.151295   -0.028269    1.146391
* Read MO coefficients from SIRIUS.RST with label "NEWORB  " and header info: 22Dec18  DIIS   7
      Virial theorem: -V/T =      2.003753
@      MULPOP N      -0.63; H       0.20; H       0.23; H       0.21; O      -0.66; O      -0.88; O      -0.66; O      -0.78; H       0.30; H       0.38; 
@             H       0.41; H       0.40; H       0.38; H       0.30; H       0.43; H       0.37; 

 DIIS Fock eigenvalues in symmetry 1
      -20.58958      -20.56984      -20.56809      -20.55988      -15.56317
       -1.36894       -1.32178       -1.31614       -1.31160       -1.17881
       -0.72171       -0.70931       -0.67871       -0.66915       -0.65673
       -0.65104       -0.61250       -0.59080       -0.57741       -0.56360
       -0.54901       -0.52051       -0.51944       -0.51098       -0.47097
        0.11441        0.15645        0.16007        0.18551        0.22015
        0.22675        0.25857        0.28457        0.29701        0.33108
        0.34670        0.44585        0.46875        0.49942        0.52616
        0.53757        0.56017        0.57978        0.58877        0.60332
        0.60648        0.68349        0.90375        0.91053        0.93414
        0.94751        0.96161        0.96921        0.97515        0.97626
        1.04133        1.06502        1.08116        1.08343        1.08829
        1.13325        1.15068        1.23725        1.30639        1.31479
        1.36453        1.38259        1.41399        1.43673        1.45131
        1.46923        1.50183        1.51486        1.52271        1.53875
        1.54518        1.66722        1.68208        1.69932        1.71504
        1.74595        1.78789        1.82732        1.84863        1.89129
        1.90733        1.92027        1.95270        1.99087        2.13595
        2.14015        2.14721        2.17099        2.17554        2.25046
        2.30947        2.32700        2.36746        2.43704        2.56684
        2.57237        2.61113        2.62492        2.69422        2.70344
        2.74878        2.78231        2.80921        2.84551        2.85602
        2.93802        2.97334        2.98108        3.10905        3.32027
        3.39512        3.39936        3.40982        3.43093        3.45595
        3.46809        3.47085        3.48992        3.49192        3.53843
        3.59662        3.60299        3.65306        3.92543        3.93717
        3.98433        4.03637        4.10379        4.16581        4.20553
        4.23049        4.58314        5.16087        5.23354        5.28016
        5.29651        5.30683        5.33021        5.51579        5.70134
        5.71149        5.73779        5.94409        5.96879        6.05293
        6.07569       37.03628       51.46143       51.46433       51.48639
       51.49725
 Time used in FCKEIG, thr_jaco:   2.27D-01  2.30D-02  1.15D-07
 CPU and wall times used in FCKEIG, THR_FCKEIG:   2.27D-01  2.30D-02  2.64D-05
 -----------------------------------------------------------------------------

 *** DIIS iteration number    8
 RDSUPM called. NFMAT, ISYMDM(1:NFMAT)                     1
                     1

 ITDIIS, energy, error norm, change in energy, scr.thr., difden:
@ DIIS iter.   8    -360.752184384        3.99949D-04   -7.39D-07  -20    F

 (DIIS_RED) Control Parameters C2DIIS =         F NEVC =    8


 (DIIS_RED) B matrix:

               Column   1     Column   2     Column   3     Column   4     Column   5     Column   6
       1      13.63492954
       2       0.76290550     0.88690475
       3       0.67846766     0.05878691     0.12700682
       4       0.01116183     0.08422181    -0.00294773     0.01312635
       5       0.01698312     0.00752269     0.00573973     0.00111773     0.00075167
       6      -0.00255407    -0.00038901     0.00072801     0.00032426     0.00007649     0.00009214
       7       0.00074887    -0.00003630     0.00009899    -0.00000534     0.00004672    -0.00000036
       8       0.00002473    -0.00000123    -0.00000117     0.00000356     0.00000093     0.00000172

               Column   7     Column   8
       7       0.00000697
       8       0.00000037     0.00000016
    ==== End of matrix output ====

 DIIS C vector; C2DIIS = F, LAMBDA = -9.13D-08
    0.000014   -0.000001   -0.000707   -0.001580    0.019882   -0.026813   -0.177945    1.187152
* Read MO coefficients from SIRIUS.RST with label "NEWORB  " and header info: 22Dec18  DIIS   8
      Virial theorem: -V/T =      2.003771
@      MULPOP N      -0.63; H       0.20; H       0.23; H       0.21; O      -0.66; O      -0.88; O      -0.66; O      -0.78; H       0.30; H       0.38; 
@             H       0.41; H       0.40; H       0.38; H       0.30; H       0.43; H       0.37; 

 DIIS Fock eigenvalues in symmetry 1
      -20.58951      -20.56988      -20.56808      -20.55991      -15.56321
       -1.36891       -1.32178       -1.31615       -1.31161       -1.17882
       -0.72169       -0.70932       -0.67871       -0.66914       -0.65674
       -0.65105       -0.61250       -0.59082       -0.57745       -0.56362
       -0.54899       -0.52051       -0.51944       -0.51099       -0.47099
        0.11441        0.15644        0.16006        0.18551        0.22014
        0.22675        0.25857        0.28456        0.29700        0.33108
        0.34670        0.44584        0.46874        0.49940        0.52616
        0.53757        0.56016        0.57978        0.58877        0.60331
        0.60648        0.68348        0.90374        0.91052        0.93412
        0.94751        0.96161        0.96920        0.97514        0.97625
        1.04133        1.06502        1.08117        1.08343        1.08829
        1.13324        1.15068        1.23724        1.30638        1.31478
        1.36453        1.38258        1.41398        1.43672        1.45131
        1.46923        1.50183        1.51485        1.52270        1.53874
        1.54517        1.66722        1.68208        1.69931        1.71502
        1.74594        1.78788        1.82731        1.84863        1.89129
        1.90733        1.92027        1.95269        1.99085        2.13594
        2.14013        2.14720        2.17097        2.17554        2.25047
        2.30947        2.32700        2.36746        2.43701        2.56683
        2.57238        2.61113        2.62492        2.69421        2.70343
        2.74880        2.78226        2.80921        2.84551        2.85602
        2.93800        2.97332        2.98106        3.10903        3.32025
        3.39510        3.39936        3.40984        3.43091        3.45593
[...]
    ==== End of matrix output ====


 CCSD   oscillator strength matrix for state nr. 13 of symmetry 1
 CCSD  excitation energy:15.17417196


               Column   1     Column   2     Column   3
       1     1.031963D-06  -1.942164D-05   9.153145D-08
       2    -1.942164D-05   3.655167D-04  -1.722746D-06
       3     9.153145D-08  -1.722746D-06   7.929722D-09
    ==== End of matrix output ====

 Principal values of diagonalized oscillator strength matrix:

             a.u.               
 1      -0.00000000
 2      -0.00000000
 3       0.00036656

 Principal axis of diagonalized oscillator strength matrix:


               Column   1     Column   2     Column   3
       1       0.03244698     0.99806408    -0.05305930
       2       0.00643466     0.05287755     0.99858027
       3       0.99945274    -0.03274233    -0.00470649
    ==== End of matrix output ====


 CCSD  Transition strength matrix for state nr. 14 of symmetry 1
 CCSD  excitation energy:15.20915469

 Gauge: length

               Column   1     Column   2     Column   3
       1     2.941216D-05   3.528138D-05  -6.446888D-05
       2     3.528138D-05   4.232180D-05  -7.733362D-05
       3    -6.446888D-05  -7.733362D-05   1.413070D-04
    ==== End of matrix output ====

 Principal values of diagonalized transition strength matrix:

             a.u.               
 1      -0.00000000
 2       0.00000000
 3       0.00021304

 Principal axis of diagonalized transition strength matrix:


               Column   1     Column   2     Column   3
       1       0.54247107     0.75343590    -0.37156356
       2       0.60767174    -0.65732677    -0.44570907
       3       0.58005189    -0.01599560     0.81442246
    ==== End of matrix output ====


 CCSD   oscillator strength matrix for state nr. 14 of symmetry 1
 CCSD  excitation energy:15.20915469


               Column   1     Column   2     Column   3
       1       0.00029822     0.00035773    -0.00065368
       2       0.00035773     0.00042912    -0.00078412
       3      -0.00065368    -0.00078412     0.00143277
    ==== End of matrix output ====

 Principal values of diagonalized oscillator strength matrix:

             a.u.               
 1      -0.00000001
 2       0.00000000
 3       0.00216013

 Principal axis of diagonalized oscillator strength matrix:


               Column   1     Column   2     Column   3
       1       0.54247107     0.75343590    -0.37156356
       2       0.60767174    -0.65732677    -0.44570907
       3       0.58005189    -0.01599560     0.81442246
    ==== End of matrix output ====


 CCSD  Transition strength matrix for state nr. 15 of symmetry 1
 CCSD  excitation energy:15.27253456

 Gauge: length

               Column   1     Column   2     Column   3
       1     4.792501D-05   3.497091D-06   1.133947D-04
       2     3.497091D-06   2.498353D-07   8.259224D-06
       3     1.133947D-04   8.259224D-06   2.682583D-04
    ==== End of matrix output ====

 Principal values of diagonalized transition strength matrix:

             a.u.               
 1      -0.00000001
 2      -0.00000000
 3       0.00031644

 Principal axis of diagonalized transition strength matrix:


               Column   1     Column   2     Column   3
       1       0.71354589     0.58256835     0.38918683
       2      -0.64140979     0.76667432     0.02835430
       3      -0.28186123    -0.26986034     0.92072235
    ==== End of matrix output ====


 CCSD   oscillator strength matrix for state nr. 15 of symmetry 1
 CCSD  excitation energy:15.27253456


               Column   1     Column   2     Column   3
       1       0.00048796     0.00003561     0.00115455
       2       0.00003561     0.00000254     0.00008409
       3       0.00115455     0.00008409     0.00273132
    ==== End of matrix output ====

 Principal values of diagonalized oscillator strength matrix:

             a.u.               
 1      -0.00000011
 2      -0.00000000
 3       0.00322194

 Principal axis of diagonalized oscillator strength matrix:


               Column   1     Column   2     Column   3
       1       0.71354589     0.58256835     0.38918683
       2      -0.64140979     0.76667432     0.02835430
       3      -0.28186123    -0.26986034     0.92072235
    ==== End of matrix output ====

  Total time for    135 linear response residues:     143.25 seconds.
  

 *******************************************************************************
 *******************************************************************************
 *                                                                             *
 *                                                                             *
 *                   SUMMARY OF COUPLED CLUSTER CALCULATION                    *
 *                                                                             *
 *                                                                             *
 *******************************************************************************
 *******************************************************************************

                                                                                
                                                                                
            Total SCF   energy:                  -360.7521844085                
            Total MP2   energy:                  -361.8579043249                
            Total CCSD  energy:                  -361.8969580966                
                                                                                
                                                                                
            Total SCF   energy:                  -360.7521844085                
            Total RSTAR energy:                  -361.8969580966                
            Total CCSD  energy:                  -361.8971204903                
                                                                                
                                                                                
            Total SCF   energy:                  -360.7521844085                
            Total RSTAR energy:                  -361.8971204903                
            Total CCSD  energy:                  -361.8971229337                
                                                                                
                                                                                
            Total SCF   energy:                  -360.7521844085                
            Total RSTAR energy:                  -361.8971229337                
            Total CCSD  energy:                  -361.8971231356                
                                                                                
                                                                                
            Total SCF   energy:                  -360.7521844085                
            Total RSTAR energy:                  -361.8971231356                
            Total CCSD  energy:                  -361.8971231477                
                                                                                
                                                                                
            Total SCF   energy:                  -360.7521844085                
            Total RSTAR energy:                  -361.8971231477                
            Total CCSD  energy:                  -361.8971231484                
                                                                                
                                                                                
            Total SCF   energy:                  -360.7521844085                
            Total RSTAR energy:                  -361.8971231484                
            Total CCSD  energy:                  -361.8971231484                
            CCSD Total  energy:                  -362.3425663059                
            CCSD E(QM/MM)     :                    -0.4383602718                
                                                                                
                                                                                
                                                                                
 +=============================================================================+
 |  sym. | Exci.  |        CCSD       Excitation energies            | ||T1||  |
 |(spin, |        +------------------------------------------------------------+
 | spat) |        |     Hartree    |       eV.      |     cm-1       |    %    |
 +=============================================================================+
 | ^1A   |    1   |    14.8272046  |     403.46876  |   3254195.223  |  88.40  |
 | ^1A   |    2   |    14.8974730  |     405.38086  |   3269617.365  |  88.84  |
 | ^1A   |    3   |    14.8981537  |     405.39938  |   3269766.763  |  88.87  |
 | ^1A   |    4   |    14.9605252  |     407.09660  |   3283455.716  |  88.40  |
 | ^1A   |    5   |    14.9854313  |     407.77433  |   3288921.980  |  88.11  |
 | ^1A   |    6   |    15.0141460  |     408.55569  |   3295224.122  |  88.01  |
 | ^1A   |    7   |    15.0232962  |     408.80468  |   3297232.362  |  88.05  |
 | ^1A   |    8   |    15.0730201  |     410.15774  |   3308145.509  |  87.98  |
 | ^1A   |    9   |    15.0818663  |     410.39846  |   3310087.012  |  88.01  |
 | ^1A   |   10   |    15.0856340  |     410.50098  |   3310913.941  |  88.15  |
 | ^1A   |   11   |    15.1057397  |     411.04809  |   3315326.629  |  88.05  |
 | ^1A   |   12   |    15.1349342  |     411.84251  |   3321734.064  |  87.98  |
 | ^1A   |   13   |    15.1741720  |     412.91022  |   3330345.766  |  87.89  |
 | ^1A   |   14   |    15.2091547  |     413.86215  |   3338023.588  |  88.11  |
 | ^1A   |   15   |    15.2725346  |     415.58681  |   3351933.861  |  87.79  |
 +=============================================================================+
                                                                                
                                                                                
     Total energies in Hartree:                                                 
             1 ^1A       -347.0770014828                                        
             2 ^1A       -347.0067330353                                        
             3 ^1A       -347.0060523259                                        
             4 ^1A       -346.9436808681                                        
             5 ^1A       -346.9187747363                                        
             6 ^1A       -346.8900600635                                        
             7 ^1A       -346.8809098496                                        
             8 ^1A       -346.8311858906                                        
             9 ^1A       -346.8223397531                                        
            10 ^1A       -346.8185719847                                        
            11 ^1A       -346.7984663019                                        
            12 ^1A       -346.7692718799                                        
            13 ^1A       -346.7300340769                                        
            14 ^1A       -346.6950513444                                        
            15 ^1A       -346.6316714762                                        
                                                                                
                                                                                
 +=============================================================================+
 |  sym. | Exci.  |        CCSD       Length   Gauge Oscillator Strength       |
 |(spin, |        +------------------------------------------------------------+
 | spat) |        | Dipole Strength(a.u.) | Oscillator strength  | Direction   |
 +=============================================================================+
 | ^1A   |    1   |        0.0005236      |      0.0051758       |  (Y,Z)      |
 | ^1A   |    2   |        0.0037846      |      0.0375869       |  (Y,Z)      |
 | ^1A   |    3   |        0.0035591      |      0.0353496       |  (Y,Z)      |
 | ^1A   |    4   |        0.0015192      |      0.0151517       |  (Y,Z)      |
 | ^1A   |    5   |        0.0007444      |      0.0074366       |  (Y,Z)      |
 | ^1A   |    6   |        0.0004182      |      0.0041864       |  (Y,Z)      |
 | ^1A   |    7   |        0.0001239      |      0.0012408       |  (Y,Z)      |
 | ^1A   |    8   |        0.0001159      |      0.0011643       |  (Y,Z)      |
 | ^1A   |    9   |        0.0003319      |      0.0033376       |  (Y,Z)      |
 | ^1A   |   10   |        0.0007826      |      0.0078711       |  (Y,Z)      |
 | ^1A   |   11   |        0.0000377      |      0.0003794       |  (Y,Z)      |
 | ^1A   |   12   |        0.0000654      |      0.0006601       |  (Y,Z)      |
 | ^1A   |   13   |        0.0000362      |      0.0003666       |  (X,Y)      |
 | ^1A   |   14   |        0.0002130      |      0.0021601       |  (Y,Z)      |
 | ^1A   |   15   |        0.0003164      |      0.0032218       |  (Y,Z)      |
 +=============================================================================+

  1 a.u. =        27.21138 eV.  
  1 a.u. =    219474.62934 cm-1.
  

 *******************************************************************************
 *******************************************************************************
 *                                                                             *
 *                                                                             *
 *                      END OF COUPLED CLUSTER CALCULATION                     *
 *                                                                             *
 *                                                                             *
 *******************************************************************************
 *******************************************************************************


 CPU and wall time for CC :  702171.195  110248.090

 
     Date and time (Linux)  : Mon Dec 24 00:50:10 2018
     Host name              : n-62-24-2                               


                      .-------------------------------------.
                      | End of Coupled Cluster Section (CC) |
                      `-------------------------------------'

  Total CPU  time used in DALTON: 195 hours 14 minutes 43 seconds
  Total wall time used in DALTON:  30 hours 39 minutes 38 seconds

 
     Date and time (Linux)  : Mon Dec 24 00:50:10 2018
     Host name              : n-62-24-2                               
  

 +---------------------------------------------------------+ 
 | List of selected calculated molecular properties (a.u.) | 
 +---------------------------------------------------------+ 

  Properties are read from unit number                      4

 CCSD       properties :
 #  1 1 CCSD/MM  Ground state Energy =    -362.3425663059
 #  2 1 E_QM/MM  Ground state Energy =      -0.4383602718
 #  3 1 Sy: 1 Sp: 1 Exc:  1 E_tot:   -347.0770014828 w:     14.8272045512 E_grs:   -361.9042060340
 #  4 1 Exctot   Excited state Energy =    -347.0770014828
 #  5 1 Sy: 1 Sp: 1 Exc:  2 E_tot:   -347.0067330353 w:     14.8974729988 E_grs:   -361.9042060340
 #  6 1 Exctot   Excited state Energy =    -347.0067330353
 #  7 1 Sy: 1 Sp: 1 Exc:  3 E_tot:   -347.0060523259 w:     14.8981537081 E_grs:   -361.9042060340
 #  8 1 Exctot   Excited state Energy =    -347.0060523259
 #  9 1 Sy: 1 Sp: 1 Exc:  4 E_tot:   -346.9436808681 w:     14.9605251660 E_grs:   -361.9042060340
 # 10 1 Exctot   Excited state Energy =    -346.9436808681
 # 11 1 Sy: 1 Sp: 1 Exc:  5 E_tot:   -346.9187747363 w:     14.9854312977 E_grs:   -361.9042060340
 # 12 1 Exctot   Excited state Energy =    -346.9187747363
 # 13 1 Sy: 1 Sp: 1 Exc:  6 E_tot:   -346.8900600635 w:     15.0141459705 E_grs:   -361.9042060340
 # 14 1 Exctot   Excited state Energy =    -346.8900600635
 # 15 1 Sy: 1 Sp: 1 Exc:  7 E_tot:   -346.8809098496 w:     15.0232961844 E_grs:   -361.9042060340
 # 16 1 Exctot   Excited state Energy =    -346.8809098496
 # 17 1 Sy: 1 Sp: 1 Exc:  8 E_tot:   -346.8311858906 w:     15.0730201434 E_grs:   -361.9042060340
 # 18 1 Exctot   Excited state Energy =    -346.8311858906
 # 19 1 Sy: 1 Sp: 1 Exc:  9 E_tot:   -346.8223397531 w:     15.0818662809 E_grs:   -361.9042060340
 # 20 1 Exctot   Excited state Energy =    -346.8223397531
 # 21 1 Sy: 1 Sp: 1 Exc: 10 E_tot:   -346.8185719847 w:     15.0856340493 E_grs:   -361.9042060340
 # 22 1 Exctot   Excited state Energy =    -346.8185719847
 # 23 1 Sy: 1 Sp: 1 Exc: 11 E_tot:   -346.7984663019 w:     15.1057397321 E_grs:   -361.9042060340
 # 24 1 Exctot   Excited state Energy =    -346.7984663019
 # 25 1 Sy: 1 Sp: 1 Exc: 12 E_tot:   -346.7692718799 w:     15.1349341541 E_grs:   -361.9042060340
 # 26 1 Exctot   Excited state Energy =    -346.7692718799
 # 27 1 Sy: 1 Sp: 1 Exc: 13 E_tot:   -346.7300340769 w:     15.1741719571 E_grs:   -361.9042060340
 # 28 1 Exctot   Excited state Energy =    -346.7300340769
 # 29 1 Sy: 1 Sp: 1 Exc: 14 E_tot:   -346.6950513444 w:     15.2091546896 E_grs:   -361.9042060340
 # 30 1 Exctot   Excited state Energy =    -346.6950513444
 # 31 1 Sy: 1 Sp: 1 Exc: 15 E_tot:   -346.6316714762 w:     15.2725345578 E_grs:   -361.9042060340
 # 32 1 Exctot   Excited state Energy =    -346.6316714762
 # 33 1 |<O|XDIPLEN |i(14.827205)>| =     0.00022035
 # 35 1 |<O|XDIPLEN |i(14.897473)>| =     0.06086858
 # 37 1 |<O|XDIPLEN |i(14.898154)>| =     0.01108610
 # 39 1 |<O|XDIPLEN |i(14.960525)>| =     0.00739604
 # 41 1 |<O|XDIPLEN |i(14.985431)>| =     0.01002290
 # 43 1 |<O|XDIPLEN |i(15.014146)>| =     0.00807510
 # 45 1 |<O|XDIPLEN |i(15.023296)>| =     0.00818036
 # 47 1 |<O|XDIPLEN |i(15.073020)>| =     0.00958786
 # 49 1 |<O|XDIPLEN |i(15.081866)>| =     0.00383852
 # 51 1 |<O|XDIPLEN |i(15.085634)>| =     0.00091206
 # 53 1 |<O|XDIPLEN |i(15.105740)>| =     0.00504993
 # 55 1 |<O|XDIPLEN |i(15.134934)>| =     0.00306827
 # 57 1 |<O|XDIPLEN |i(15.174172)>| =     0.00031939
 # 59 1 |<O|XDIPLEN |i(15.209155)>| =     0.00542330
 # 61 1 |<O|XDIPLEN |i(15.272535)>| =     0.00692279
 # 63 1 |<O|YDIPLEN |i(14.827205)>| =     0.00246705
 # 65 1 |<O|YDIPLEN |i(14.897473)>| =     0.00827537
 # 67 1 |<O|YDIPLEN |i(14.898154)>| =     0.05621441
 # 69 1 |<O|YDIPLEN |i(14.960525)>| =     0.00417689
 # 71 1 |<O|YDIPLEN |i(14.985431)>| =     0.02169909
 # 73 1 |<O|YDIPLEN |i(15.014146)>| =     0.01878345
 # 75 1 |<O|YDIPLEN |i(15.023296)>| =     0.00533114
 # 77 1 |<O|YDIPLEN |i(15.073020)>| =     0.00454239
 # 79 1 |<O|YDIPLEN |i(15.081866)>| =     0.00690049
 # 81 1 |<O|YDIPLEN |i(15.085634)>| =     0.00985970
 # 83 1 |<O|YDIPLEN |i(15.105740)>| =     0.00164065
 # 85 1 |<O|YDIPLEN |i(15.134934)>| =     0.00072102
 # 87 1 |<O|YDIPLEN |i(15.174172)>| =     0.00601100
 # 89 1 |<O|YDIPLEN |i(15.209155)>| =     0.00650552
 # 91 1 |<O|YDIPLEN |i(15.272535)>| =     0.00049984
 # 93 1 |<O|ZDIPLEN |i(14.827205)>| =     0.02274820
 # 95 1 |<O|ZDIPLEN |i(14.897473)>| =     0.00333100
 # 97 1 |<O|ZDIPLEN |i(14.898154)>| =     0.01661814
 # 99 1 |<O|ZDIPLEN |i(14.960525)>| =     0.03803975
 #101 1 |<O|ZDIPLEN |i(14.985431)>| =     0.01315564
 #103 1 |<O|ZDIPLEN |i(15.014146)>| =     0.00046894
 #105 1 |<O|ZDIPLEN |i(15.023296)>| =     0.00534275
 #107 1 |<O|ZDIPLEN |i(15.073020)>| =     0.00181741
 #109 1 |<O|ZDIPLEN |i(15.081866)>| =     0.01641933
 #111 1 |<O|ZDIPLEN |i(15.085634)>| =     0.02616470
 #113 1 |<O|ZDIPLEN |i(15.105740)>| =     0.00307986
 #115 1 |<O|ZDIPLEN |i(15.134934)>| =     0.00744914
 #117 1 |<O|ZDIPLEN |i(15.174172)>| =     0.00002800
 #119 1 |<O|ZDIPLEN |i(15.209155)>| =     0.01188726
 #121 1 |<O|ZDIPLEN |i(15.272535)>| =     0.01637859

 THE_END   
