

     ************************************************************************
     *************** Dalton - An Electronic Structure Program ***************
     ************************************************************************

    This is output from DALTON release Dalton2017.alpha (2016)
         ( Web site: http://daltonprogram.org )

   ----------------------------------------------------------------------------

    NOTE:
     
    Dalton is an experimental code for the evaluation of molecular
    properties using (MC)SCF, DFT, CI, and CC wave functions.
    The authors accept no responsibility for the performance of
    the code or for the correctness of the results.
     
    The code (in whole or part) is provided under a licence and
    is not to be reproduced for further distribution without
    the written permission of the authors or their representatives.
     
    See the home page "http://daltonprogram.org" for further information.
     
    If results obtained with this code are published,
    the appropriate citations would be both of:
     
       K. Aidas, C. Angeli, K. L. Bak, V. Bakken, R. Bast,
       L. Boman, O. Christiansen, R. Cimiraglia, S. Coriani,
       P. Dahle, E. K. Dalskov, U. Ekstroem,
       T. Enevoldsen, J. J. Eriksen, P. Ettenhuber, B. Fernandez,
       L. Ferrighi, H. Fliegl, L. Frediani, K. Hald, A. Halkier,
       C. Haettig, H. Heiberg, T. Helgaker, A. C. Hennum,
       H. Hettema, E. Hjertenaes, S. Hoest, I.-M. Hoeyvik,
       M. F. Iozzi, B. Jansik, H. J. Aa. Jensen, D. Jonsson,
       P. Joergensen, J. Kauczor, S. Kirpekar,
       T. Kjaergaard, W. Klopper, S. Knecht, R. Kobayashi, H. Koch,
       J. Kongsted, A. Krapp, K. Kristensen, A. Ligabue,
       O. B. Lutnaes, J. I. Melo, K. V. Mikkelsen, R. H. Myhre,
       C. Neiss, C. B. Nielsen, P. Norman, J. Olsen,
       J. M. H. Olsen, A. Osted, M. J. Packer, F. Pawlowski,
       T. B. Pedersen, P. F. Provasi, S. Reine, Z. Rinkevicius,
       T. A. Ruden, K. Ruud, V. Rybkin, P. Salek, C. C. M. Samson,
       A. Sanchez de Meras, T. Saue, S. P. A. Sauer,
       B. Schimmelpfennig, K. Sneskov, A. H. Steindal,
       K. O. Sylvester-Hvid, P. R. Taylor, A. M. Teale,
       E. I. Tellgren, D. P. Tew, A. J. Thorvaldsen, L. Thoegersen,
       O. Vahtras, M. A. Watson, D. J. D. Wilson, M. Ziolkowski
       and H. Agren,
       "The Dalton quantum chemistry program system",
       WIREs Comput. Mol. Sci. 2014, 4:269–284 (doi: 10.1002/wcms.1172)
     
    and
     
       Dalton, a Molecular Electronic Structure Program,
       Release Dalton2017.alpha (2016), see http://daltonprogram.org
   ----------------------------------------------------------------------------

    Authors in alphabetical order (major contribution(s) in parenthesis):

  Kestutis Aidas,           Vilnius University,           Lithuania   (QM/MM)
  Celestino Angeli,         University of Ferrara,        Italy       (NEVPT2)
  Keld L. Bak,              UNI-C,                        Denmark     (AOSOPPA, non-adiabatic coupling, magnetic properties)
  Vebjoern Bakken,          University of Oslo,           Norway      (DALTON; geometry optimizer, symmetry detection)
  Radovan Bast,             UiT The Arctic U. of Norway,  Norway      (DALTON installation and execution frameworks)
  Pablo Baudin,             University of Valencia,       Spain       (Cholesky excitation energies)
  Linus Boman,              NTNU,                         Norway      (Cholesky decomposition and subsystems)
  Ove Christiansen,         Aarhus University,            Denmark     (CC module)
  Renzo Cimiraglia,         University of Ferrara,        Italy       (NEVPT2)
  Sonia Coriani,            University of Trieste,        Italy       (CC module, MCD in RESPONS)
  Janusz Cukras,            University of Trieste,        Italy       (MChD in RESPONS)
  Paal Dahle,               University of Oslo,           Norway      (Parallelization)
  Erik K. Dalskov,          UNI-C,                        Denmark     (SOPPA)
  Thomas Enevoldsen,        Univ. of Southern Denmark,    Denmark     (SOPPA)
  Janus J. Eriksen,         Aarhus University,            Denmark     (Polarizable embedding model, TDA)
  Rasmus Faber,             University of Copenhagen,     Denmark     (Vib.avg. NMR with SOPPA, parallel AO-SOPPA)
  Berta Fernandez,          U. of Santiago de Compostela, Spain       (doublet spin, ESR in RESPONS)
  Lara Ferrighi,            Aarhus University,            Denmark     (PCM Cubic response)
  Heike Fliegl,             University of Oslo,           Norway      (CCSD(R12))
  Luca Frediani,            UiT The Arctic U. of Norway,  Norway      (PCM)
  Bin Gao,                  UiT The Arctic U. of Norway,  Norway      (Gen1Int library)
  Christof Haettig,         Ruhr-University Bochum,       Germany     (CC module)
  Kasper Hald,              Aarhus University,            Denmark     (CC module)
  Asger Halkier,            Aarhus University,            Denmark     (CC module)
  Frederik Beyer Hansen,    University of Copenhagen,     Denmark     (Parallel AO-SOPPA)
  Erik D. Hedegaard,        Univ. of Southern Denmark,    Denmark     (Polarizable embedding model, QM/MM)
  Hanne Heiberg,            University of Oslo,           Norway      (geometry analysis, selected one-electron integrals)
  Trygve Helgaker,          University of Oslo,           Norway      (DALTON; ABACUS, ERI, DFT modules, London, and much more)
  Alf Christian Hennum,     University of Oslo,           Norway      (Parity violation)
  Hinne Hettema,            University of Auckland,       New Zealand (quadratic response in RESPONS; SIRIUS supersymmetry)
  Eirik Hjertenaes,         NTNU,                         Norway      (Cholesky decomposition)
  Pi A. B. Haase,           University of Copenhagen,     Denmark     (Triplet AO-SOPPA)
  Maria Francesca Iozzi,    University of Oslo,           Norway      (RPA)
  Brano Jansik              Technical Univ. of Ostrava    Czech Rep.  (DFT cubic response)
  Hans Joergen Aa. Jensen,  Univ. of Southern Denmark,    Denmark     (DALTON; SIRIUS, RESPONS, ABACUS modules, London, and much more)
  Dan Jonsson,              UiT The Arctic U. of Norway,  Norway      (cubic response in RESPONS module)
  Poul Joergensen,          Aarhus University,            Denmark     (RESPONS, ABACUS, and CC modules)
  Maciej Kaminski,          University of Warsaw,         Poland      (CPPh in RESPONS)
  Joanna Kauczor,           Linkoeping University,        Sweden      (Complex polarization propagator (CPP) module)
  Sheela Kirpekar,          Univ. of Southern Denmark,    Denmark     (Mass-velocity & Darwin integrals)
  Wim Klopper,              KIT Karlsruhe,                Germany     (R12 code in CC, SIRIUS, and ABACUS modules)
  Stefan Knecht,            ETH Zurich,                   Switzerland (Parallel CI and MCSCF)
  Rika Kobayashi,           Australian National Univ.,    Australia   (DIIS in CC, London in MCSCF)
  Henrik Koch,              NTNU,                         Norway      (CC module, Cholesky decomposition)
  Jacob Kongsted,           Univ. of Southern Denmark,    Denmark     (Polarizable embedding model, QM/MM)
  Andrea Ligabue,           University of Modena,         Italy       (CTOCD, AOSOPPA)
  Nanna H. List             Univ. of Southern Denmark,    Denmark     (Polarizable embedding model)
  Ola B. Lutnaes,           University of Oslo,           Norway      (DFT Hessian)
  Juan I. Melo,             University of Buenos Aires,   Argentina   (LRESC, Relativistic Effects on NMR Shieldings)
  Kurt V. Mikkelsen,        University of Copenhagen,     Denmark     (MC-SCRF and QM/MM)
  Rolf H. Myhre,            NTNU,                         Norway      (Cholesky, subsystems and ECC2)
  Christian Neiss,          Univ. Erlangen-Nuernberg,     Germany     (CCSD(R12))
  Christian B. Nielsen,     University of Copenhagen,     Denmark     (QM/MM)
  Patrick Norman,           Linkoeping University,        Sweden      (Cubic response and complex frequency response in RESPONS)
  Jeppe Olsen,              Aarhus University,            Denmark     (SIRIUS CI/density modules)
  Jogvan Magnus H. Olsen,   Univ. of Southern Denmark,    Denmark     (Polarizable embedding model, QM/MM)
  Anders Osted,             Copenhagen University,        Denmark     (QM/MM)
  Martin J. Packer,         University of Sheffield,      UK          (SOPPA)
  Filip Pawlowski,          Kazimierz Wielki University,  Poland      (CC3)
  Morten N. Pedersen,       Univ. of Southern Denmark,    Denmark     (Polarizable embedding model)
  Thomas B. Pedersen,       University of Oslo,           Norway      (Cholesky decomposition)
  Patricio F. Provasi,      University of Northeastern,   Argentina   (Analysis of coupling constants in localized orbitals)
  Zilvinas Rinkevicius,     KTH Stockholm,                Sweden      (open-shell DFT, ESR)
  Elias Rudberg,            KTH Stockholm,                Sweden      (DFT grid and basis info)
  Torgeir A. Ruden,         University of Oslo,           Norway      (Numerical derivatives in ABACUS)
  Kenneth Ruud,             UiT The Arctic U. of Norway,  Norway      (DALTON; ABACUS magnetic properties and much more)
  Pawel Salek,              KTH Stockholm,                Sweden      (DALTON; DFT code)
  Claire C. M. Samson       University of Karlsruhe       Germany     (Boys localization, r12 integrals in ERI)
  Alfredo Sanchez de Meras, University of Valencia,       Spain       (CC module, Cholesky decomposition)
  Trond Saue,               Paul Sabatier University,     France      (direct Fock matrix construction)
  Stephan P. A. Sauer,      University of Copenhagen,     Denmark     (SOPPA(CCSD), SOPPA prop., AOSOPPA, vibrational g-factors)
  Bernd Schimmelpfennig,    Forschungszentrum Karlsruhe,  Germany     (AMFI module)
  Kristian Sneskov,         Aarhus University,            Denmark     (Polarizable embedding model, QM/MM)
  Arnfinn H. Steindal,      UiT The Arctic U. of Norway,  Norway      (parallel QM/MM, Polarizable embedding model)
  Casper Steinmann,         Univ. of Southern Denmark,    Denmark     (QFIT, Polarizable embedding model)
  K. O. Sylvester-Hvid,     University of Copenhagen,     Denmark     (MC-SCRF)
  Peter R. Taylor,          VLSCI/Univ. of Melbourne,     Australia   (Symmetry handling ABACUS, integral transformation)
  Andrew M. Teale,          University of Nottingham,     England     (DFT-AC, DFT-D)
  David P. Tew,             University of Bristol,        England     (CCSD(R12))
  Olav Vahtras,             KTH Stockholm,                Sweden      (triplet response, spin-orbit, ESR, TDDFT, open-shell DFT)
  David J. Wilson,          La Trobe University,          Australia   (DFT Hessian and DFT magnetizabilities)
  Hans Agren,               KTH Stockholm,                Sweden      (SIRIUS module, RESPONS, MC-SCRF solvation model)
 --------------------------------------------------------------------------------

     Date and time (Linux)  : Mon Dec 24 23:38:04 2018
     Host name              : n-62-30-16                              

 * Work memory size             :  1280000000 =  9.537 gigabytes.

 * Directories for basis set searches:
   1) /zhome/37/3/129401/NH3NH4/CCSD/AIMD_SAMPLING/nh3_4h2o_nd
   2) /zhome/9a/4/124800/source/dalton/build-mlcc/basis


Compilation information
-----------------------

 Who compiled             | rfaber
 Host                     | hpclogin1
 System                   | Linux-2.6.32-696.1.1.el6.x86_64
 CMake generator          | Unix Makefiles
 Processor                | x86_64
 64-bit integers          | ON
 MPI                      | OFF
 Fortran compiler         | /opt/intel/2016update2/compilers_and_libraries_201
                          | 6.2.181/linux/bin/intel64/ifort
 Fortran compiler version | ifort (IFORT) 16.0.2 20160204
 C compiler               | /opt/intel/2016update2/compilers_and_libraries_201
                          | 6.2.181/linux/bin/intel64/icc
 C compiler version       | icc (ICC) 16.0.2 20160204
 C++ compiler             | /opt/intel/2016update2/compilers_and_libraries_201
                          | 6.2.181/linux/bin/intel64/icpc
 C++ compiler version     | icpc (ICC) 16.0.2 20160204
 Static linking           | OFF
 Last Git revision        | bb4d1599ca5680a9f3980451fc8bbefdba436d59
 Git branch               | mlcc
 Configuration time       | 2017-06-13 16:11:03.928841


   Content of the .dal input file
 ----------------------------------

**DALTON
.RUN WAVE FUNCTIONS
*QMMM
.QMMM
**INTEGRALS
.DIPLEN
**WAVE FUNCTIONS
.CC
*PRINT
!To check the origin of excit
.PRINTL
   0 11
*SCF INP
.THRESH
1.0D-7
*CC INP
.CCSD
.THRLEQ
 1.0D-9
.THRENR
 1.0D-10
.FROIMP
4
0
.PRINT
 1
.MAX IT
 1200
.MAXRED
 1200
.MXLRV
1199
*CCSLV
.CCMM
.MXSLIT
200
.MXINIT
4 5
*CCEXCI
.NCCEXC
 15
.CVSEPARA
1
1
*CCLRSD
.DIPOLE
**END OF DALTON INPUT


   Content of the .mol file
 ----------------------------

ATOMBASIS


Atomtypes=4 Charge=0 Nosymm Angstrom
   7.00000    1    Basis=6-311G**
N          0.000000        0.000000        0.000000
   1.00000    3    Basis=6-311G**
H         -0.950373       -0.265283       -0.357973
H          0.219299       -0.769174        0.655612
H         -0.157060        0.867831        0.585362
   8.00000    4    Basis=6-311G**
O         -0.357034       -1.607031        3.163666
O          1.266758        1.224769       -2.043432
O         -1.183208        3.166097        1.581822
O         -2.313768       -1.497292        1.355355
   1.00000    8    Basis=6-311G**
H          0.643888       -1.603316        3.163482
H         -0.625618       -2.444148        3.729068
H          2.152057        1.560183       -1.646754
H          0.760923        0.615164       -1.283704
H         -1.629280        2.375950        1.981944
H         -0.333545        3.310663        2.115340
H         -2.667128       -0.645834        1.097713
H         -1.609810       -1.395230        2.081204


       *******************************************************************
       *********** Output from DALTON general input processing ***********
       *******************************************************************

 --------------------------------------------------------------------------------
   Overall default print level:    0
   Print level for DALTON.STAT:    1

    HERMIT 1- and 2-electron integral sections will be executed
    "Old" integral transformation used (limited to max 255 basis functions)
    Wave function sections will be executed (SIRIUS module)
 --------------------------------------------------------------------------------


 Changes of defaults for *QMMM  :
 --------------------------------

 +------------------+
 |  WORD: | CHANGE: |
 +------------------+
 |   QMMM |       T |
 +------------------+
 


   ****************************************************************************
   *************** Output of molecule and basis set information ***************
   ****************************************************************************


    The two title cards from your ".mol" input:
    ------------------------------------------------------------------------
 1:                                                                         
 2:                                                                         
    ------------------------------------------------------------------------

  Coordinates are entered in Angstrom and converted to atomic units.
          - Conversion factor : 1 bohr = 0.52917721 A

  Atomic type no.    1
  --------------------
  Nuclear charge:   7.00000
  Number of symmetry independent centers:    1
  Number of basis sets to read;    2
  The basis set is "6-311G**" from the basis set library.
  Basis set file used for this atomic type with Z =   7 :
     "/zhome/9a/4/124800/source/dalton/build-mlcc/basis/6-311G**"

  Info about the basis set file: your basis has no documentation.
  Basis set: 6-311G**                                                                        

  Atomic type no.    2
  --------------------
  Nuclear charge:   1.00000
  Number of symmetry independent centers:    3
  Number of basis sets to read;    2
  The basis set is "6-311G**" from the basis set library.
  Basis set file used for this atomic type with Z =   1 :
     "/zhome/9a/4/124800/source/dalton/build-mlcc/basis/6-311G**"

  Info about the basis set file: your basis has no documentation.
  Basis set: 6-311G**                                                                        

  Atomic type no.    3
  --------------------
  Nuclear charge:   8.00000
  Number of symmetry independent centers:    4
  Number of basis sets to read;    2
  The basis set is "6-311G**" from the basis set library.
  Basis set file used for this atomic type with Z =   8 :
     "/zhome/9a/4/124800/source/dalton/build-mlcc/basis/6-311G**"

  Info about the basis set file: your basis has no documentation.
  Basis set: 6-311G**                                                                        

  Atomic type no.    4
  --------------------
  Nuclear charge:   1.00000
  Number of symmetry independent centers:    8
  Number of basis sets to read;    2
  The basis set is "6-311G**" from the basis set library.
  Basis set file used for this atomic type with Z =   1 :
     "/zhome/9a/4/124800/source/dalton/build-mlcc/basis/6-311G**"

  Info about the basis set file: your basis has no documentation.
  Basis set: 6-311G**                                                                        


                         SYMGRP: Point group information
                         -------------------------------

@    Point group: C1 


                                 Isotopic Masses
                                 ---------------

                           N          14.003074
                           H           1.007825
                           H           1.007825
                           H           1.007825
                           O          15.994915
                           O          15.994915
                           O          15.994915
                           O          15.994915
                           H           1.007825
                           H           1.007825
                           H           1.007825
                           H           1.007825
                           H           1.007825
                           H           1.007825
                           H           1.007825
                           H           1.007825

                       Total mass:    89.068809 amu
                       Natural abundance:  98.514 %

 Center-of-mass coordinates (a.u.):   -0.967734    0.470953    1.636089


  Atoms and basis sets
  --------------------

  Number of atom types :    4
  Total number of atoms:   16

  label    atoms   charge   prim   cont     basis
  ----------------------------------------------------------------------
  N           1    7.0000    31    18      [11s5p1d|4s3p1d]                                   
  H           3    1.0000     8     6      [5s1p|3s1p]                                        
  O           4    8.0000    31    18      [11s5p1d|4s3p1d]                                   
  H           8    1.0000     8     6      [5s1p|3s1p]                                        
  ----------------------------------------------------------------------
  total:     16   50.0000   243   156
  ----------------------------------------------------------------------
  Spherical harmonic basis used.

  Threshold for neglecting AO integrals:  1.00D-12


  Cartesian Coordinates (a.u.)
  ----------------------------

  Total number of coordinates:   48
  N       :     1  x   0.0000000000    2  y   0.0000000000    3  z   0.0000000000
  H       :     4  x  -1.7959446866    5  y  -0.5013122156    6  z  -0.6764709301
  H       :     7  x   0.4144150495    8  y  -1.4535282025    9  z   1.2389271243
  H       :    10  x  -0.2968003852   11  y   1.6399629128   12  z   1.1061738640
  O       :    13  x  -0.6746964773   14  y  -3.0368484644   15  z   5.9784622910
  O       :    16  x   2.3938256866   17  y   2.3144779764   18  z  -3.8615268350
  O       :    19  x  -2.2359390689   20  y   5.9830562152   21  z   2.9892103585
  O       :    22  x  -4.3723878368   23  y  -2.8294718091   24  z   2.5612497521
  H       :    25  x   1.2167719752   26  y  -3.0298281318   27  z   5.9781145813
  H       :    28  x  -1.1822466789   29  y  -4.6187703290   30  z   7.0469172215
  H       :    31  x   4.0667983354   32  y   2.9483185749   33  z  -3.1119140552
  H       :    34  x   1.4379360722   35  y   1.1624914820   36  z  -2.4258489856
  H       :    37  x  -3.0788929809   38  y   4.4898947867   39  z   3.7453313551
  H       :    40  x  -0.6303087004   41  y   6.2562463621   42  z   3.9974132612
  H       :    43  x  -5.0401414603   44  y  -1.2204493822   45  z   2.0743769338
  H       :    46  x  -3.0421000133   47  y  -2.6366025814   48  z   3.9329055702


   Interatomic separations (in Angstrom):
   --------------------------------------

            N           H           H           H           O           O     
            ------      ------      ------      ------      ------      ------
 N     :    0.000000
 H     :    1.049633    0.000000
 H     :    1.034189    1.627696    0.000000
 H     :    1.058512    1.674268    1.681180    0.000000
 O     :    3.566343    3.815007    2.706381    3.579467    0.000000
 O     :    2.698212    3.158591    3.515369    3.010850    6.145703    0.000000
 O     :    3.731797    3.948593    4.279164    2.707017    5.095836    4.786810
 O     :    3.071220    2.512406    2.726944    3.292125    2.666616    5.637511
 H     :    3.604557    4.090556    2.676842    3.659889    1.000929    5.958019
 H     :    4.502356    4.642933    3.600771    4.590385    1.045266    7.096745
 H     :    3.126870    3.823396    3.802939    3.285379    6.282271    1.026455
 H     :    1.614102    2.135579    2.443501    2.097604    5.095790    1.097576
 H     :    3.496826    3.593360    3.881779    2.528299    4.345022    5.090767
 H     :    3.942893    4.391485    4.368239    2.887803    5.028246    4.920092
 H     :    2.955613    2.282781    2.922692    2.975588    3.244780    5.370420
 H     :    2.978182    2.767891    2.402061    3.077251    1.669141    5.670243

            O           O           H           H           H           H     
            ------      ------      ------      ------      ------      ------
 O     :    0.000000
 O     :    4.803816    0.000000
 H     :    5.346703    3.468183    0.000000
 H     :    6.032945    3.062826    1.624356    0.000000
 H     :    4.911889    6.189055    5.951527    7.256005    0.000000
 H     :    4.300947    4.569554    4.971198    6.034051    1.720500    0.000000
 H     :    0.991670    3.982856    4.732640    5.224282    5.303907    4.413377
 H     :    1.013641    5.255025    5.118708    5.983918    4.836915    4.474045
 H     :    4.119126    0.957196    4.018333    3.784934    5.968514    4.360367
 H     :    4.608370    1.016283    2.508741    2.187309    6.064963    4.580902

            H           H           H           H     
            ------      ------      ------      ------
 H     :    0.000000
 H     :    1.603250    0.000000
 H     :    3.315143    4.704789    0.000000
 H     :    3.772536    4.876007    1.626890    0.000000


  Max    interatomic separation is    7.2560 Angstrom (   13.7119 Bohr)
  between atoms   11 and   10, "H     " and "H     ".

  Min HX interatomic separation is    0.9572 Angstrom (    1.8088 Bohr)

  Min YX interatomic separation is    2.6666 Angstrom (    5.0392 Bohr)


  Bond distances (Angstrom):
  --------------------------

                  atom 1     atom 2       distance
                  ------     ------       --------
  bond distance:  H          N            1.049633
  bond distance:  H          N            1.034189
  bond distance:  H          N            1.058512
  bond distance:  H          O            1.000929
  bond distance:  H          O            1.045266
  bond distance:  H          O            1.026455
  bond distance:  H          O            1.097576
  bond distance:  H          O            0.991670
  bond distance:  H          O            1.013641
  bond distance:  H          O            0.957196
  bond distance:  H          O            1.016283


  Bond angles (degrees):
  ----------------------

                  atom 1     atom 2     atom 3         angle
                  ------     ------     ------         -----
  bond angle:     H          N          H            102.722
  bond angle:     H          N          H            105.157
  bond angle:     H          N          H            106.897
  bond angle:     H          O          H            105.071
  bond angle:     H          O          H            108.148
  bond angle:     H          O          H            106.160
  bond angle:     H          O          H            111.015




 Principal moments of inertia (u*A**2) and principal axes
 --------------------------------------------------------

   IA     266.608474         -0.363100   -0.626235    0.689919
   IB     493.289110         -0.364513    0.776913    0.513358
   IC     625.916384          0.857489    0.065085    0.510368


 Rotational constants
 --------------------

               A                   B                   C

           1895.5849           1024.5087            807.4226 MHz
            0.063230            0.034174            0.026933 cm-1


@  Nuclear repulsion energy :  183.828426155611 Hartree


                     .---------------------------------------.
                     | Starting in Integral Section (HERMIT) |
                     `---------------------------------------'



 ***************************************************************************************
 ****************** Output from **INTEGRALS input processing (HERMIT) ******************
 ***************************************************************************************



    *************************************************************************
    ****************** Output from HERMIT input processing ******************
    *************************************************************************


 Default print level:        1

 * Nuclear model: Point charge

 Calculation of one- and two-electron Hamiltonian integrals.

 The following one-electron property integrals are calculated as requested:
          - overlap integrals
          - dipole length integrals

 Center of mass  (bohr):     -0.967733511654      0.470953229585      1.636089073215
 Operator center (bohr):      0.000000000000      0.000000000000      0.000000000000
 Gauge origin    (bohr):      0.000000000000      0.000000000000      0.000000000000
 Dipole origin   (bohr):      0.000000000000      0.000000000000      0.000000000000
 
  *********************************** 
  QMMM electrostatic potential: 
  Multipole order                                    0
  Isotropic polarization  
  *********************************** 
 
  ---------------- 
  QMMM information 
  ---------------- 
 
  MM coordinates in au 
  -------------------- 
     1     11.237561      2.827193      9.562774
     2     10.590791      4.585041      9.254015
     3      9.770978      2.004655     10.163163
     4     -9.391379    -11.625355      5.098882
     5     -7.928616    -12.767203      5.441905
     6     -8.493710    -10.010469      4.845120
     7     -7.848210      7.119936      6.117588
     8     -7.581203      7.291958      7.887479
     9     -8.245204      5.381209      5.854908
    10     -2.834119     -6.160879     -0.727684
    11     -3.617512     -4.871667      0.431309
    12     -3.277280     -5.846210     -2.534410
    13      5.656498     -3.561315     -2.720960
    14      5.117129     -3.608334     -4.515261
    15      5.275016     -5.195930     -2.059569
    16     -8.435392      2.520982    -10.487806
    17     -9.910247      2.813420    -11.613733
    18     -7.143947      1.646934    -11.479754
    19      6.091729    -10.912721    -11.172934
    20      4.235436    -11.205700    -10.625998
    21      5.972846    -11.201544    -12.919763
    22      8.991916     -7.487790     -8.398799
    23      9.719576     -6.049418     -9.194595
    24      8.495749     -8.642033     -9.767618
    25     -3.357548     -0.863365     -5.990640
    26     -4.395129     -0.504306     -7.501532
    27     -2.620287     -2.538635     -6.423039
    28     -2.752363     -6.122303     -6.117610
    29     -1.392647     -7.280769     -5.665527
    30     -4.047682     -7.076884     -6.964028
    31      5.109491     -8.550140     -1.210536
    32      6.736976     -9.486376     -1.491574
    33      3.665162     -9.060033     -2.377228
    34     -2.425354      4.708283    -11.148660
    35     -1.445548      6.247450    -11.188129
    36     -0.951615      3.672872    -10.812737
    37     -7.645615     -2.469589     -2.959855
    38     -5.985129     -2.261573     -4.131176
    39     -7.194032     -1.484571     -1.415539
    40     -9.925921      4.431139     -2.726108
    41    -10.392063      5.866987     -1.616224
    42     -8.491781      5.276049     -3.560575
    43    -10.557858      1.875999      4.774582
    44    -11.014310      2.022833      6.678525
    45    -12.276566      1.556337      4.090783
    46      3.716394     -5.641295     -7.047838
    47      5.189018     -5.930104     -8.125949
    48      2.418536     -4.842778     -8.102875
    49     -2.545365    -11.677230      9.526126
    50     -2.782412    -12.260776      7.691161
    51     -3.854835    -12.632048     10.550868
    52     -7.397751      1.209867      0.737458
    53     -8.320455      2.147698     -0.673190
    54     -8.418138      1.634112      2.277194
    55     -2.226912     -6.626703      8.997099
    56     -3.115327     -6.046082     10.519718
    57     -2.205925     -8.507162      9.219955
    58      6.444603    -11.596898      6.371353
    59      6.719367    -13.067590      5.268037
    60      5.488007    -10.365450      5.346596
    61     10.959087    -10.653407      9.175537
    62     12.312127    -10.878987      7.876414
    63      9.420763    -10.666047      8.007694
    64      4.543427      7.159284     10.686997
    65      3.385543      8.195510     11.652140
    66      5.203686      5.764455     11.749714
    67     -9.858718     11.704191     -9.034731
    68    -10.313883     12.980937    -10.250402
    69    -11.569538     11.127622     -8.450347
    70      7.003427      7.771279      3.550327
    71      8.468879      8.538843      2.554101
    72      7.644479      7.118649      5.225860
    73      4.590120     -3.098580      6.230913
    74      5.522770     -2.966371      7.761566
    75      5.416822     -2.227913      4.646769
    76     -1.238039      9.939825     -6.439349
    77     -2.959527     10.635874     -6.285441
    78     -0.965348      8.600096     -5.105957
    79      1.499214      1.482205     -9.024952
    80      0.728321     -0.286681     -9.075054
    81      1.758982      1.630616     -7.093011
    82     -9.727369     -6.935287     -2.931205
    83     -8.897241     -8.297504     -1.677225
    84     -8.782037     -5.357905     -2.810318
    85      9.459600      7.189444      8.627758
    86      8.208046      7.911990      9.725120
    87     10.789956      8.365030      8.402977
    88      6.966362     -0.854937      1.946531
    89      5.858559      0.602556      1.617379
    90      7.216431     -1.761582      0.361335
    91      6.619716      2.416967    -10.601942
    92      7.832735      2.780566     -9.117331
    93      4.898660      2.011300     -9.759118
    94      1.171311     -9.353855     -4.874290
    95      2.387096     -8.603175     -6.098263
    96      0.527844    -10.945039     -5.619588
    97     10.456233      4.529386     -7.313964
    98     11.479495      4.384783     -5.820457
    99      9.835314      6.276005     -7.543639
   100     10.237348     -1.091190     -3.772842
   101      8.839198     -2.365703     -3.770737
   102     11.913206     -1.829026     -3.483512
   103      8.853083      9.446380     -7.934688
   104      7.832036     10.422482     -9.296230
   105      7.538941      9.322701     -6.476766
   106     -0.456040    -10.248032      1.423132
   107      0.783611     -9.092030      2.235215
   108     -1.187982     -9.082438      0.119537
   109      0.572857     -3.267949    -10.305098
   110      1.960717     -3.400197    -11.484089
   111     -1.060573     -3.466196    -11.113557
   112      9.619288    -10.143517     -2.620646
   113     10.482921     -8.594920     -2.928756
   114      9.551541    -11.090799     -4.280485
   115      1.218904     10.648389    -10.725229
   116     -0.016488     10.560699     -9.192936
   117      0.211141     11.206754    -12.194376
   118     -1.080487      6.048223     -2.849407
   119      0.185860      4.674515     -3.121123
   120     -2.413039      5.323410     -1.837980
   121     -5.429006    -10.895326     -5.848379
   122     -7.039647    -11.354901     -6.726388
   123     -6.138014    -10.768128     -4.106534
   124      5.912040      8.539788     -3.557443
   125      6.700020      6.927445     -3.003841
   126      4.427424      8.671536     -2.338931
   127     -6.444278      5.947707     -6.661451
   128     -4.782842      5.131515     -6.518193
   129     -7.345537      4.753408     -7.848745
   130      2.169064      9.050756     -0.076831
   131      1.148073     10.654867      0.431821
   132      0.801144      7.755695     -0.205003
   133      6.262492     -2.831602     11.473198
   134      7.935260     -3.611792     11.131220
   135      6.475145     -1.019893     11.698699
   136     11.100892      9.414309      0.894785
   137     11.835954     10.431424      2.211777
   138     10.478401     10.754879     -0.321091
   139      2.223879      5.753780      5.508334
   140      3.386714      6.670280      4.255588
   141      2.475348      6.682032      7.043639
   142    -11.265721     -1.497489     -8.422453
   143    -12.168561     -0.772529     -6.852472
   144    -10.473216     -0.249429     -9.496089
   145      7.463522      3.859560     -1.711999
   146      8.137979      4.263388     -0.021913
   147      8.667204      2.551178     -2.244254
   148     -6.037000      8.734155     11.573696
   149     -6.104569      7.154756     12.527544
   150     -7.501946      9.579163     12.420966
   151     -6.964410    -10.425313     -0.382316
   152     -5.827141     -8.987949      0.257711
   153     -8.059296    -10.787082      1.102307
   154     -5.012011     -3.404810    -10.947242
   155     -6.258278     -3.019111    -12.408905
   156     -6.004626     -4.495740     -9.769797
   157     10.672345     -4.946914     10.095900
   158     12.089451     -4.913757     11.269603
   159     10.719054     -6.615090      9.172449
   160      3.969151     -8.191836      3.827742
   161      4.489126     -6.593226      4.486939
   162      4.685686     -8.223858      2.064592
   163     -4.028242     10.735328      4.655310
   164     -4.342037      9.025126      3.966114
   165     -3.188845     11.759497      3.222444
   166     -4.275061      2.137038      6.928195
   167     -3.022789      0.870884      6.891151
   168     -3.670048      3.412522      8.272828
   169     -7.069775     -6.462412      5.199192
   170     -6.304138     -5.119429      4.104651
   171     -5.543130     -6.743576      6.217467
   172     -8.244981     -1.617401      8.779709
   173     -7.421795     -0.258996      7.997277
   174     -8.760615     -2.615024      7.406993
   175     -8.706972     -5.711926     -8.590000
   176     -8.756651     -6.387263     -6.831575
   177     -9.492504     -3.924088     -8.140592
 
  MM charges 
  ---------- 
     1     -0.674440
     2      0.337220
     3      0.337220
     4     -0.674440
     5      0.337220
     6      0.337220
     7     -0.674440
     8      0.337220
     9      0.337220
    10     -0.674440
    11      0.337220
    12      0.337220
    13     -0.674440
    14      0.337220
    15      0.337220
    16     -0.674440
    17      0.337220
    18      0.337220
    19     -0.674440
    20      0.337220
    21      0.337220
    22     -0.674440
    23      0.337220
    24      0.337220
    25     -0.674440
    26      0.337220
    27      0.337220
    28     -0.674440
    29      0.337220
    30      0.337220
    31     -0.674440
    32      0.337220
    33      0.337220
    34     -0.674440
    35      0.337220
    36      0.337220
    37     -0.674440
    38      0.337220
    39      0.337220
    40     -0.674440
    41      0.337220
    42      0.337220
    43     -0.674440
    44      0.337220
    45      0.337220
    46     -0.674440
    47      0.337220
    48      0.337220
    49     -0.674440
    50      0.337220
    51      0.337220
    52     -0.674440
    53      0.337220
    54      0.337220
    55     -0.674440
    56      0.337220
    57      0.337220
    58     -0.674440
    59      0.337220
    60      0.337220
    61     -0.674440
    62      0.337220
    63      0.337220
    64     -0.674440
    65      0.337220
    66      0.337220
    67     -0.674440
    68      0.337220
    69      0.337220
    70     -0.674440
    71      0.337220
    72      0.337220
    73     -0.674440
    74      0.337220
    75      0.337220
    76     -0.674440
    77      0.337220
    78      0.337220
    79     -0.674440
    80      0.337220
    81      0.337220
    82     -0.674440
    83      0.337220
    84      0.337220
    85     -0.674440
    86      0.337220
    87      0.337220
    88     -0.674440
    89      0.337220
    90      0.337220
    91     -0.674440
    92      0.337220
    93      0.337220
    94     -0.674440
    95      0.337220
    96      0.337220
    97     -0.674440
    98      0.337220
    99      0.337220
   100     -0.674440
   101      0.337220
   102      0.337220
   103     -0.674440
   104      0.337220
   105      0.337220
   106     -0.674440
   107      0.337220
   108      0.337220
   109     -0.674440
   110      0.337220
   111      0.337220
   112     -0.674440
   113      0.337220
   114      0.337220
   115     -0.674440
   116      0.337220
   117      0.337220
   118     -0.674440
   119      0.337220
   120      0.337220
   121     -0.674440
   122      0.337220
   123      0.337220
   124     -0.674440
   125      0.337220
   126      0.337220
   127     -0.674440
   128      0.337220
   129      0.337220
   130     -0.674440
   131      0.337220
   132      0.337220
   133     -0.674440
   134      0.337220
   135      0.337220
   136     -0.674440
   137      0.337220
   138      0.337220
   139     -0.674440
   140      0.337220
   141      0.337220
   142     -0.674440
   143      0.337220
   144      0.337220
   145     -0.674440
   146      0.337220
   147      0.337220
   148     -0.674440
   149      0.337220
   150      0.337220
   151     -0.674440
   152      0.337220
   153      0.337220
   154     -0.674440
   155      0.337220
   156      0.337220
   157     -0.674440
   158      0.337220
   159      0.337220
   160     -0.674440
   161      0.337220
   162      0.337220
   163     -0.674440
   164      0.337220
   165      0.337220
   166     -0.674440
   167      0.337220
   168      0.337220
   169     -0.674440
   170      0.337220
   171      0.337220
   172     -0.674440
   173      0.337220
   174      0.337220
   175     -0.674440
   176      0.337220
   177      0.337220
 
  MM isotropic polarizabilities in au 
  ----------------------------------- 
     1      5.739350
     2      2.308390
     3      2.308390
     4      5.739350
     5      2.308390
     6      2.308390
     7      5.739350
     8      2.308390
     9      2.308390
    10      5.739350
    11      2.308390
    12      2.308390
    13      5.739350
    14      2.308390
    15      2.308390
    16      5.739350
    17      2.308390
    18      2.308390
    19      5.739350
    20      2.308390
    21      2.308390
    22      5.739350
    23      2.308390
    24      2.308390
    25      5.739350
    26      2.308390
    27      2.308390
    28      5.739350
    29      2.308390
    30      2.308390
    31      5.739350
    32      2.308390
    33      2.308390
    34      5.739350
    35      2.308390
    36      2.308390
    37      5.739350
    38      2.308390
    39      2.308390
    40      5.739350
    41      2.308390
    42      2.308390
    43      5.739350
    44      2.308390
    45      2.308390
    46      5.739350
    47      2.308390
    48      2.308390
    49      5.739350
    50      2.308390
    51      2.308390
    52      5.739350
    53      2.308390
    54      2.308390
    55      5.739350
    56      2.308390
    57      2.308390
    58      5.739350
    59      2.308390
    60      2.308390
    61      5.739350
    62      2.308390
    63      2.308390
    64      5.739350
    65      2.308390
    66      2.308390
    67      5.739350
    68      2.308390
    69      2.308390
    70      5.739350
    71      2.308390
    72      2.308390
    73      5.739350
    74      2.308390
    75      2.308390
    76      5.739350
    77      2.308390
    78      2.308390
    79      5.739350
    80      2.308390
    81      2.308390
    82      5.739350
    83      2.308390
    84      2.308390
    85      5.739350
    86      2.308390
    87      2.308390
    88      5.739350
    89      2.308390
    90      2.308390
    91      5.739350
    92      2.308390
    93      2.308390
    94      5.739350
    95      2.308390
    96      2.308390
    97      5.739350
    98      2.308390
    99      2.308390
   100      5.739350
   101      2.308390
   102      2.308390
   103      5.739350
   104      2.308390
   105      2.308390
   106      5.739350
   107      2.308390
   108      2.308390
   109      5.739350
   110      2.308390
   111      2.308390
   112      5.739350
   113      2.308390
   114      2.308390
   115      5.739350
   116      2.308390
   117      2.308390
   118      5.739350
   119      2.308390
   120      2.308390
   121      5.739350
   122      2.308390
   123      2.308390
   124      5.739350
   125      2.308390
   126      2.308390
   127      5.739350
   128      2.308390
   129      2.308390
   130      5.739350
   131      2.308390
   132      2.308390
   133      5.739350
   134      2.308390
   135      2.308390
   136      5.739350
   137      2.308390
   138      2.308390
   139      5.739350
   140      2.308390
   141      2.308390
   142      5.739350
   143      2.308390
   144      2.308390
   145      5.739350
   146      2.308390
   147      2.308390
   148      5.739350
   149      2.308390
   150      2.308390
   151      5.739350
   152      2.308390
   153      2.308390
   154      5.739350
   155      2.308390
   156      2.308390
   157      5.739350
   158      2.308390
   159      2.308390
   160      5.739350
   161      2.308390
   162      2.308390
   163      5.739350
   164      2.308390
   165      2.308390
   166      5.739350
   167      2.308390
   168      2.308390
   169      5.739350
   170      2.308390
   171      2.308390
   172      5.739350
   173      2.308390
   174      2.308390
   175      5.739350
   176      2.308390
   177      2.308390


     ************************************************************************
     ************************** Output from HERINT **************************
     ************************************************************************



                      Nuclear contribution to dipole moments
                      --------------------------------------

                 au               Debye          C m (/(10**-30)

      x    -47.04409504      -119.57415488      -398.85644781
      y     22.48613462        57.15404965       190.64538857
      z     84.24509047       214.12964765       714.25962174


  Time used in HUCKEL     is       0.11 seconds
  Time used in OVERLAP    is       0.13 seconds
  Time used in POPOVLP    is       0.22 seconds
  Time used in DIPLEN     is       0.17 seconds
  Time used in QUADRUP    is       0.43 seconds
  Time used in KINENE     is       0.30 seconds

 Threshold for neglecting two-electron integrals:  1.00D-12
 HERMIT - Number of two-electron integrals written:    30081791 ( 40.1% )
 HERMIT - Megabytes written:                            344.455

  Time used in TWOINT     is      14.02 seconds
  Total CPU  time used in HERMIT:  15.44 seconds
  Total wall time used in HERMIT:   5.53 seconds


                        .----------------------------------.
                        | End of Integral Section (HERMIT) |
                        `----------------------------------'



                   .--------------------------------------------.
                   | Starting in Wave Function Section (SIRIUS) |
                   `--------------------------------------------'

NCCEXCI for singlet:   15
 CCSD_INPUT: core-val requested
 Requested number of core orbs per sym
                     1
 Indices of requested core orbs
                     1

 *** Output from Huckel module :

     Using EWMO model:          T
     Using EHT  model:          F
     Number of Huckel orbitals each symmetry:   36

 EWMO - Energy Weighted Maximum Overlap - is a Huckel type method,
        which normally is better than Extended Huckel Theory.
 Reference: Linderberg and Ohrn, Propagators in Quantum Chemistry (Wiley, 1973)

 Huckel EWMO eigenvalues for symmetry :  1
          -20.685299     -20.684302     -20.683627     -20.683455     -15.673287
           -1.742352      -1.627419      -1.578678      -1.519719      -1.426619
           -0.842917      -0.817916      -0.783172      -0.767994      -0.735670
           -0.717422      -0.692686      -0.681267      -0.677660      -0.639298
           -0.615194      -0.613350      -0.601863      -0.594567      -0.510156
           -0.273018      -0.249917      -0.241214      -0.214945      -0.191617
           -0.188726      -0.181935      -0.169268      -0.162725      -0.156121
           -0.150425

 **********************************************************************
 *SIRIUS* a direct, restricted step, second order MCSCF program       *
 **********************************************************************

 
     Date and time (Linux)  : Mon Dec 24 23:38:10 2018
     Host name              : n-62-30-16                              

 Title lines from ".mol" input file:
                                                                             
                                                                             

 Print level on unit LUPRI =   2 is   0
 Print level on unit LUW4  =   2 is  11

@    (Integral direct) CC calculation.

@    This is a combination run starting with
@              a restricted, closed shell Hartree-Fock calculation


 Initial molecular orbitals are obtained according to
 ".MOSTART EWMO  " input option

@    QM part is embedded in an environment :

@         Model: QMMM

     Wave function specification
     ============================

     For the specification of the Coupled Cluster: see later.

@    Wave function type        --- CC ---
@    Number of closed shell electrons          50
@    Number of electrons in active shells       0
@    Total charge of the molecule               0

@    Spin multiplicity and 2 M_S                1         0
@    Total number of symmetries                 1 (point group: C1 )
@    Reference state symmetry                   1 (irrep name : A  )

     Orbital specifications
     ======================
@    Abelian symmetry species          All |    1
@                                          |  A  
                                       --- |  ---
@    Occupied SCF orbitals              25 |   25
@    Secondary orbitals                131 |  131
@    Total number of orbitals          156 |  156
@    Number of basis functions         156 |  156

     Optimization information
     ========================
@    Number of configurations                 1
@    Number of orbital rotations           3275
     ------------------------------------------
@    Total number of variables             3276

     Maximum number of Fock   iterations      0
     Maximum number of DIIS   iterations     60
     Maximum number of QC-SCF iterations     60
     Threshold for SCF convergence     1.00D-07


 Changes of defaults for CC:
 ---------------------------


 -Implicit frozen core calculation
 -Excitation energies calculated
 -One-photon absorption strengths will be calculated
 -Oscillator strengths calculated
  
* Read MO coefficients from SIRIUS.RST with label "NEWORB  " and header info: 24Dec18  REORTHO 


 ***********************************************
 ***** DIIS acceleration of SCF iterations *****
 ***********************************************

 C1-DIIS algorithm; max error vectors =    8
 -----------------------------------------------------------------------------

 *** DIIS iteration number    1
 RDSUPM called. NFMAT, ISYMDM(1:NFMAT)                     1
                     1

Calculating AOSUPINT
     (Precalculated two-electron integrals are transformed to P-supermatrix elements.
      Threshold for discarding integrals :  1.00D-12 )
  CPU  time used in FORMSUP    is   6.83 seconds
  WALL time used in FORMSUP    is   7.72 seconds

 ITDIIS, energy, error norm, change in energy, scr.thr., difden:
@ DIIS iter.   1    -359.919610167        3.76159D+00   -3.60D+02  -20    F

 (DIIS_RED) Control Parameters C2DIIS =         F NEVC =    1


 (DIIS_RED) B matrix:

               Column   1
       1      14.14953420
    ==== End of matrix output ====

 DIIS C vector; C2DIIS = F, LAMBDA = -1.41D+01
    1.000000
* Read MO coefficients from SIRIUS.RST with label "NEWORB  " and header info: 24Dec18  DIIS   1
      Virial theorem: -V/T =      1.997778
@      MULPOP N      -0.25; H       0.17; H       0.17; H       0.15; O      -0.53; O      -0.90; O      -0.64; O      -0.77; H       0.31; H       0.32; 
@             H       0.32; H       0.32; H       0.33; H       0.33; H       0.33; H       0.35; 
   1  Level shift: doubly occupied orbital energies shifted by -2.00D-01

 DIIS Fock eigenvalues in symmetry 1
      -20.76669      -20.70514      -20.64683      -20.44263      -16.07607
       -1.54983       -1.53115       -1.52728       -1.48611       -1.38777
       -0.98478       -0.97485       -0.94961       -0.91272       -0.90652
       -0.87530       -0.81992       -0.77526       -0.77443       -0.75694
       -0.74713       -0.73702       -0.73286       -0.64543       -0.61188
        0.07489        0.15074        0.16944        0.17437        0.22791
        0.23741        0.24062        0.28188        0.28968        0.34139
        0.35810        0.39542        0.40263        0.49604        0.51918
        0.52977        0.54604        0.58757        0.59015        0.59236
        0.61388        0.63745        0.74812        0.82326        0.83058
        0.91807        0.97182        0.98118        0.99057        1.02140
        1.05225        1.06085        1.09047        1.10681        1.11832
        1.14037        1.19003        1.20893        1.23834        1.27088
        1.30149        1.33697        1.45836        1.47004        1.47679
        1.48574        1.50967        1.51971        1.53208        1.55516
        1.63103        1.63556        1.66131        1.67064        1.67816
        1.72510        1.72788        1.77402        1.79904        1.82563
        1.86286        1.88168        1.89885        1.94673        1.99675
        2.02252        2.15554        2.17679        2.27268        2.27826
        2.28968        2.30576        2.37783        2.42885        2.52635
        2.59290        2.59423        2.60875        2.62908        2.63450
        2.68581        2.72222        2.74500        2.77277        2.79052
        2.82919        2.85485        2.89826        3.00358        3.21873
        3.25370        3.38623        3.41467        3.41985        3.47626
        3.48063        3.49862        3.52650        3.56846        3.58337
        3.62452        3.63771        3.67289        3.92693        3.97524
        4.01223        4.04486        4.16900        4.17912        4.20292
        4.21300        4.51650        4.84722        4.89920        5.29875
        5.38577        5.41347        5.50182        5.65097        5.67904
        5.78936        5.80776        5.97725        6.05405        6.19144
        6.22663       36.65005       51.49155       51.54640       51.67267
       51.81434
 Time used in FCKEIG, thr_jaco:   4.34D-01  4.30D-02  1.64D-04
 CPU and wall times used in FCKEIG, THR_FCKEIG:   4.34D-01  4.30D-02  3.76D-02
 -----------------------------------------------------------------------------

 *** DIIS iteration number    2
 RDSUPM called. NFMAT, ISYMDM(1:NFMAT)                     1
                     1

 ITDIIS, energy, error norm, change in energy, scr.thr., difden:
@ DIIS iter.   2    -360.684143085        1.01898D+00   -7.65D-01  -20    F

 (DIIS_RED) Control Parameters C2DIIS =         F NEVC =    2


 (DIIS_RED) B matrix:

               Column   1     Column   2
       1      14.14953420
       2       0.56901903     1.03832009
    ==== End of matrix output ====

 DIIS C vector; C2DIIS = F, LAMBDA = -1.02D+00
    0.033403    0.966597
* Read MO coefficients from SIRIUS.RST with label "NEWORB  " and header info: 24Dec18  DIIS   2
      Virial theorem: -V/T =      2.005752
@      MULPOP N      -0.66; H       0.25; H       0.25; H       0.22; O      -0.63; O      -0.71; O      -0.57; O      -0.68; H       0.34; H       0.37; 
@             H       0.25; H       0.34; H       0.27; H       0.32; H       0.30; H       0.33; 
   2  Level shift: doubly occupied orbital energies shifted by -1.00D-01

 DIIS Fock eigenvalues in symmetry 1
      -20.74381      -20.71249      -20.67247      -20.63956      -15.55333
       -1.46128       -1.42173       -1.40525       -1.40210       -1.21819
       -0.84235       -0.78811       -0.77487       -0.76142       -0.72506
       -0.71698       -0.70468       -0.68013       -0.67457       -0.65468
       -0.65153       -0.62165       -0.61745       -0.60364       -0.52760
        0.13595        0.19776        0.20289        0.21795        0.24513
        0.27472        0.29723        0.30747        0.32161        0.36241
        0.37897        0.46797        0.47844        0.54591        0.55219
        0.56041        0.57631        0.61863        0.62916        0.63205
        0.64551        0.71476        0.84713        0.91717        0.94132
        0.94712        0.97854        0.98301        0.99360        1.02328
        1.07340        1.08937        1.10749        1.13843        1.14493
        1.14928        1.17087        1.28540        1.31635        1.34521
        1.36431        1.38409        1.48393        1.52003        1.52101
        1.53642        1.55915        1.56407        1.57329        1.59060
        1.66755        1.68698        1.71035        1.72487        1.75544
        1.76132        1.78244        1.83813        1.86040        1.88562
        1.92861        1.96206        1.99270        2.00065        2.12028
        2.13948        2.21250        2.22569        2.26735        2.31959
        2.35118        2.36546        2.47888        2.52223        2.57165
        2.65624        2.66316        2.67964        2.68837        2.72703
        2.72909        2.80796        2.84282        2.87514        2.91523
        2.93812        2.96353        3.03586        3.13768        3.37654
        3.39443        3.42854        3.43887        3.44943        3.46203
        3.47701        3.49890        3.51574        3.53009        3.56659
        3.62584        3.64213        3.64647        3.94949        3.98345
        3.99255        4.03830        4.11571        4.18594        4.20027
        4.23360        4.69213        5.11076        5.15816        5.28672
        5.33962        5.36213        5.38409        5.60728        5.61606
        5.66950        5.82531        6.01258        6.03410        6.06300
        6.19142       37.06529       51.42027       51.47034       51.48385
       51.55916
 Time used in FCKEIG, thr_jaco:   3.14D-01  3.20D-02  4.45D-05
 CPU and wall times used in FCKEIG, THR_FCKEIG:   3.15D-01  3.20D-02  1.02D-02
 -----------------------------------------------------------------------------

 *** DIIS iteration number    3
 RDSUPM called. NFMAT, ISYMDM(1:NFMAT)                     1
                     1

 ITDIIS, energy, error norm, change in energy, scr.thr., difden:
@ DIIS iter.   3    -360.748335256        4.03954D-01   -6.42D-02  -20    F

 (DIIS_RED) Control Parameters C2DIIS =         F NEVC =    3


 (DIIS_RED) B matrix:

               Column   1     Column   2     Column   3
       1      14.14953420
       2       0.56901903     1.03832009
       3       0.81864810    -0.01863172     0.16317884
    ==== End of matrix output ====

 DIIS C vector; C2DIIS = F, LAMBDA = -1.04D-01
   -0.050942    0.143979    0.906962
* Read MO coefficients from SIRIUS.RST with label "NEWORB  " and header info: 24Dec18  DIIS   3
      Virial theorem: -V/T =      2.002720
@      MULPOP N      -0.57; H       0.22; H       0.22; H       0.19; O      -0.69; O      -0.82; O      -0.62; O      -0.75; H       0.36; H       0.39; 
@             H       0.33; H       0.40; H       0.29; H       0.35; H       0.34; H       0.37; 
   3  Level shift: doubly occupied orbital energies shifted by -5.00D-02

 DIIS Fock eigenvalues in symmetry 1
      -20.59055      -20.58864      -20.58732      -20.52508      -15.63462
       -1.38559       -1.35720       -1.34668       -1.30043       -1.20259
       -0.76981       -0.72205       -0.70770       -0.69908       -0.68202
       -0.66785       -0.65007       -0.60730       -0.59077       -0.58983
       -0.56929       -0.54413       -0.53957       -0.50879       -0.48718
        0.14041        0.20208        0.20886        0.22069        0.25052
        0.27674        0.29742        0.31240        0.32381        0.36980
        0.38485        0.46813        0.47717        0.55880        0.56517
        0.57207        0.58652        0.63175        0.63860        0.64274
        0.65487        0.71639        0.84759        0.91872        0.93626
        0.95863        0.99783        1.00453        1.01414        1.04287
        1.07985        1.10055        1.11849        1.15490        1.15978
        1.17177        1.18089        1.28786        1.32088        1.34939
        1.36816        1.39024        1.50205        1.53316        1.53689
        1.54624        1.57148        1.57506        1.58592        1.60280
        1.68363        1.70055        1.72463        1.73685        1.76688
        1.77100        1.79239        1.84714        1.86500        1.89683
        1.93845        1.96619        1.99642        2.01235        2.11251
        2.13244        2.22164        2.23926        2.29415        2.33707
        2.36623        2.37858        2.48957        2.52640        2.59095
        2.66773        2.67395        2.69228        2.70108        2.73453
        2.73944        2.81873        2.84624        2.88319        2.91896
        2.92104        2.94396        3.02540        3.12846        3.39059
        3.41722        3.43082        3.45308        3.46222        3.46803
        3.52122        3.53498        3.54489        3.54980        3.62923
        3.64126        3.66902        3.67113        3.99397        4.00201
        4.01439        4.07072        4.17551        4.21101        4.23340
        4.24783        4.65166        5.05745        5.10720        5.35607
        5.38288        5.39916        5.41407        5.64920        5.69589
        5.70823        5.83789        6.04516        6.09003        6.10488
        6.23544       36.93798       51.50578       51.51751       51.58727
       51.59850
 Time used in FCKEIG, thr_jaco:   2.97D-01  3.00D-02  1.76D-05
 CPU and wall times used in FCKEIG, THR_FCKEIG:   2.97D-01  3.00D-02  4.04D-03
 -----------------------------------------------------------------------------

 *** DIIS iteration number    4
 RDSUPM called. NFMAT, ISYMDM(1:NFMAT)                     1
                     1

 ITDIIS, energy, error norm, change in energy, scr.thr., difden:
@ DIIS iter.   4    -360.758891381        1.06537D-01   -1.06D-02  -20    F

 (DIIS_RED) Control Parameters C2DIIS =         F NEVC =    4


 (DIIS_RED) B matrix:

               Column   1     Column   2     Column   3     Column   4
       1      14.14953420
       2       0.56901903     1.03832009
       3       0.81864810    -0.01863172     0.16317884
       4       0.02359371     0.08875643    -0.00373489     0.01135004
    ==== End of matrix output ====

 DIIS C vector; C2DIIS = F, LAMBDA = -4.20D-03
   -0.000534   -0.083949    0.042686    1.041797
* Read MO coefficients from SIRIUS.RST with label "NEWORB  " and header info: 24Dec18  DIIS   4
      Virial theorem: -V/T =      2.003791
@      MULPOP N      -0.64; H       0.23; H       0.24; H       0.20; O      -0.72; O      -0.80; O      -0.63; O      -0.76; H       0.37; H       0.41; 
@             H       0.32; H       0.40; H       0.30; H       0.36; H       0.35; H       0.38; 
   4  Level shift: doubly occupied orbital energies shifted by -2.50D-02

 DIIS Fock eigenvalues in symmetry 1
      -20.57582      -20.56769      -20.56157      -20.53716      -15.59169
       -1.36468       -1.33521       -1.32232       -1.28723       -1.17252
       -0.74820       -0.69932       -0.68250       -0.67520       -0.65296
       -0.64157       -0.62618       -0.58279       -0.57040       -0.56594
       -0.54497       -0.51749       -0.51130       -0.49220       -0.45988
        0.13990        0.20153        0.20812        0.22059        0.24941
        0.27678        0.29843        0.31184        0.32389        0.36987
        0.38508        0.47070        0.47938        0.55912        0.56499
        0.57167        0.58565        0.62921        0.63691        0.64107
        0.65384        0.71739        0.84950        0.92214        0.94038
        0.95939        0.99845        1.00159        1.01429        1.04035
        1.08106        1.10077        1.11809        1.15534        1.15870
        1.16651        1.17989        1.28951        1.32141        1.35073
        1.36973        1.39040        1.49980        1.53095        1.53516
        1.54507        1.57017        1.57424        1.58441        1.60131
        1.68142        1.69927        1.72260        1.73493        1.76835
        1.77004        1.79188        1.84710        1.86560        1.89459
        1.93716        1.96783        1.99845        2.01144        2.11645
        2.13612        2.22027        2.23692        2.28750        2.33397
        2.36347        2.37613        2.49095        2.52872        2.58937
        2.66569        2.67199        2.69038        2.70019        2.73573
        2.73849        2.81644        2.84788        2.88384        2.92129
        2.92439        2.94926        3.02962        3.13194        3.39725
        3.41877        3.43021        3.44875        3.46031        3.46888
        3.52008        3.52434        3.54544        3.54716        3.61873
        3.64199        3.66808        3.66909        3.99321        3.99519
        4.01298        4.06829        4.16554        4.21007        4.23125
        4.24866        4.65865        5.06720        5.11664        5.35719
        5.36546        5.39520        5.40954        5.64525        5.69019
        5.69393        5.83858        6.04578        6.08596        6.08774
        6.23042       36.95575       51.50387       51.51282       51.55087
       51.59217
 Time used in FCKEIG, thr_jaco:   2.63D-01  2.60D-02  4.65D-06
 CPU and wall times used in FCKEIG, THR_FCKEIG:   2.64D-01  2.60D-02  1.07D-03
 -----------------------------------------------------------------------------

 *** DIIS iteration number    5
 RDSUPM called. NFMAT, ISYMDM(1:NFMAT)                     1
                     1

 ITDIIS, energy, error norm, change in energy, scr.thr., difden:
@ DIIS iter.   5    -360.760081297        2.55588D-02   -1.19D-03  -20    F

 (DIIS_RED) Control Parameters C2DIIS =         F NEVC =    5


 (DIIS_RED) B matrix:

               Column   1     Column   2     Column   3     Column   4     Column   5
       1      14.14953420
       2       0.56901903     1.03832009
       3       0.81864810    -0.01863172     0.16317884
       4       0.02359371     0.08875643    -0.00373489     0.01135004
       5       0.01166695     0.00701290     0.00504987     0.00124448     0.00065325
    ==== End of matrix output ====

 DIIS C vector; C2DIIS = F, LAMBDA = -4.12D-04
    0.001856    0.000262   -0.045003   -0.110934    1.153819
* Read MO coefficients from SIRIUS.RST with label "NEWORB  " and header info: 24Dec18  DIIS   5
      Virial theorem: -V/T =      2.003482
@      MULPOP N      -0.64; H       0.23; H       0.24; H       0.20; O      -0.73; O      -0.82; O      -0.64; O      -0.77; H       0.37; H       0.41; 
@             H       0.33; H       0.41; H       0.30; H       0.36; H       0.35; H       0.38; 

 DIIS Fock eigenvalues in symmetry 1
      -20.55174      -20.54234      -20.53762      -20.50506      -15.56001
       -1.33989       -1.30999       -1.29786       -1.25986       -1.14553
       -0.72404       -0.67449       -0.65740       -0.64987       -0.62627
       -0.61503       -0.60164       -0.55809       -0.54359       -0.54182
       -0.51916       -0.49125       -0.48597       -0.46413       -0.43290
        0.13994        0.20132        0.20812        0.22059        0.24943
        0.27671        0.29881        0.31176        0.32372        0.36982
        0.38523        0.47116        0.47989        0.55917        0.56487
        0.57178        0.58552        0.62926        0.63639        0.64086
        0.65333        0.71784        0.85056        0.92315        0.94157
        0.95998        0.99857        1.00294        1.01476        1.04184
        1.08162        1.10057        1.11797        1.15574        1.15864
        1.16752        1.17944        1.29012        1.32158        1.35126
        1.37040        1.39090        1.50053        1.53061        1.53468
        1.54430        1.56984        1.57413        1.58401        1.60101
        1.68174        1.69903        1.72208        1.73465        1.76873
        1.77035        1.79162        1.84720        1.86621        1.89414
        1.93644        1.96834        1.99896        2.01102        2.11744
        2.13704        2.21920        2.23644        2.28777        2.33315
        2.36303        2.37537        2.49168        2.52964        2.58870
        2.66490        2.67125        2.68991        2.69992        2.73610
        2.73822        2.81584        2.84804        2.88344        2.92074
        2.92574        2.95057        3.03122        3.13315        3.39954
        3.42009        3.43098        3.45059        3.46083        3.46855
        3.52019        3.52670        3.54482        3.54675        3.62108
        3.64130        3.66820        3.66869        3.99408        3.99605
        4.01304        4.06786        4.16813        4.21011        4.23087
        4.24798        4.66193        5.07038        5.11979        5.35673
        5.36928        5.39498        5.41032        5.64466        5.69381
        5.69431        5.83776        6.04480        6.08680        6.09048
        6.22970       36.96227       51.50298       51.51303       51.55787
       51.59122
 Time used in FCKEIG, thr_jaco:   2.38D-01  2.40D-02  1.12D-06
 CPU and wall times used in FCKEIG, THR_FCKEIG:   2.38D-01  2.40D-02  2.56D-04
 -----------------------------------------------------------------------------

 *** DIIS iteration number    6
 RDSUPM called. NFMAT, ISYMDM(1:NFMAT)                     1
                     1

 ITDIIS, energy, error norm, change in energy, scr.thr., difden:
@ DIIS iter.   6    -360.760177009        9.43739D-03   -9.57D-05  -20    F

 (DIIS_RED) Control Parameters C2DIIS =         F NEVC =    6


 (DIIS_RED) B matrix:

               Column   1     Column   2     Column   3     Column   4     Column   5     Column   6
       1      14.14953420
       2       0.56901903     1.03832009
       3       0.81864810    -0.01863172     0.16317884
       4       0.02359371     0.08875643    -0.00373489     0.01135004
       5       0.01166695     0.00701290     0.00504987     0.00124448     0.00065325
       6      -0.00077030    -0.00025388     0.00074325     0.00032922     0.00006419     0.00008906
    ==== End of matrix output ====

 DIIS C vector; C2DIIS = F, LAMBDA = -4.21D-05
    0.000644    0.008085   -0.015626   -0.116291    0.219760    0.903430
* Read MO coefficients from SIRIUS.RST with label "NEWORB  " and header info: 24Dec18  DIIS   6
      Virial theorem: -V/T =      2.003591
@      MULPOP N      -0.63; H       0.23; H       0.24; H       0.20; O      -0.73; O      -0.82; O      -0.64; O      -0.78; H       0.38; H       0.42; 
@             H       0.34; H       0.41; H       0.30; H       0.36; H       0.36; H       0.38; 

 DIIS Fock eigenvalues in symmetry 1
      -20.55069      -20.54214      -20.53731      -20.50775      -15.56380
       -1.33946       -1.30981       -1.29775       -1.26064       -1.14671
       -0.72394       -0.67450       -0.65784       -0.65046       -0.62720
       -0.61597       -0.60146       -0.55820       -0.54442       -0.54187
       -0.51864       -0.49085       -0.48568       -0.46472       -0.43398
        0.13983        0.20121        0.20800        0.22047        0.24925
        0.27660        0.29863        0.31173        0.32357        0.36970
        0.38508        0.47080        0.47949        0.55904        0.56483
        0.57163        0.58532        0.62897        0.63631        0.64078
        0.65322        0.71755        0.85010        0.92276        0.94088
        0.95994        0.99860        1.00256        1.01480        1.04146
        1.08150        1.10060        1.11794        1.15573        1.15852
        1.16702        1.17935        1.28976        1.32140        1.35101
        1.37005        1.39060        1.50008        1.53052        1.53468
        1.54410        1.56973        1.57397        1.58383        1.60078
        1.68139        1.69893        1.72199        1.73455        1.76844
        1.77001        1.79141        1.84688        1.86570        1.89403
        1.93621        1.96796        1.99855        2.01087        2.11678
        2.13635        2.21897        2.23633        2.28721        2.33312
        2.36294        2.37523        2.49119        2.52918        2.58873
        2.66467        2.67103        2.68980        2.69966        2.73585
        2.73795        2.81566        2.84760        2.88312        2.92027
        2.92478        2.94960        3.03018        3.13249        3.39819
        3.41950        3.43066        3.44978        3.46077        3.46845
        3.52027        3.52581        3.54490        3.54712        3.62021
        3.64134        3.66831        3.66900        3.99392        3.99519
        4.01311        4.06820        4.16712        4.21025        4.23122
        4.24805        4.66000        5.06848        5.11791        5.35694
        5.36801        5.39554        5.41036        5.64519        5.69256
        5.69423        5.83791        6.04487        6.08674        6.08917
        6.23020       36.95856       51.50351       51.51325       51.55521
       51.59201
 Time used in FCKEIG, thr_jaco:   2.58D-01  2.60D-02  4.12D-07
 CPU and wall times used in FCKEIG, THR_FCKEIG:   2.58D-01  2.60D-02  9.44D-05
 -----------------------------------------------------------------------------

 *** DIIS iteration number    7
 RDSUPM called. NFMAT, ISYMDM(1:NFMAT)                     1
                     1

 ITDIIS, energy, error norm, change in energy, scr.thr., difden:
@ DIIS iter.   7    -360.760185687        2.45352D-03   -8.68D-06  -20    F

 (DIIS_RED) Control Parameters C2DIIS =         F NEVC =    7


 (DIIS_RED) B matrix:

               Column   1     Column   2     Column   3     Column   4     Column   5     Column   6
       1      14.14953420
       2       0.56901903     1.03832009
       3       0.81864810    -0.01863172     0.16317884
       4       0.02359371     0.08875643    -0.00373489     0.01135004
       5       0.01166695     0.00701290     0.00504987     0.00124448     0.00065325
       6      -0.00077030    -0.00025388     0.00074325     0.00032922     0.00006419     0.00008906
       7       0.00025436    -0.00011748     0.00009115     0.00000398     0.00004084     0.00000049

               Column   7
       7       0.00000602
    ==== End of matrix output ====

 DIIS C vector; C2DIIS = F, LAMBDA = -1.59D-06
   -0.000242   -0.000841    0.005721    0.025563   -0.145819   -0.030064    1.145682
* Read MO coefficients from SIRIUS.RST with label "NEWORB  " and header info: 24Dec18  DIIS   7
      Virial theorem: -V/T =      2.003576
@      MULPOP N      -0.63; H       0.23; H       0.24; H       0.20; O      -0.73; O      -0.82; O      -0.64; O      -0.78; H       0.38; H       0.42; 
@             H       0.34; H       0.41; H       0.30; H       0.36; H       0.36; H       0.38; 

 DIIS Fock eigenvalues in symmetry 1
      -20.55097      -20.54225      -20.53753      -20.50712      -15.56333
       -1.33950       -1.30980       -1.29781       -1.26034       -1.14654
       -0.72403       -0.67453       -0.65785       -0.65041       -0.62709
       -0.61584       -0.60157       -0.55832       -0.54425       -0.54202
       -0.51861       -0.49078       -0.48570       -0.46440       -0.43379
        0.13984        0.20119        0.20804        0.22047        0.24928
        0.27659        0.29865        0.31173        0.32355        0.36972
        0.38512        0.47087        0.47955        0.55907        0.56485
        0.57169        0.58534        0.62902        0.63626        0.64077
        0.65317        0.71758        0.85016        0.92283        0.94098
        0.95997        0.99856        1.00269        1.01482        1.04161
        1.08152        1.10057        1.11794        1.15576        1.15852
        1.16716        1.17930        1.28984        1.32141        1.35104
        1.37009        1.39067        1.50022        1.53047        1.53464
        1.54401        1.56971        1.57398        1.58380        1.60079
        1.68146        1.69891        1.72196        1.73453        1.76845
        1.77012        1.79139        1.84694        1.86578        1.89399
        1.93615        1.96803        1.99860        2.01085        2.11686
        2.13643        2.21887        2.23629        2.28729        2.33305
        2.36288        2.37515        2.49131        2.52922        2.58867
        2.66459        2.67096        2.68978        2.69970        2.73585
        2.73795        2.81562        2.84761        2.88319        2.92024
        2.92489        2.94973        3.03035        3.13256        3.39838
        3.41961        3.43070        3.44996        3.46080        3.46839
        3.52026        3.52609        3.54482        3.54705        3.62049
        3.64126        3.66830        3.66894        3.99390        3.99539
        4.01310        4.06813        4.16741        4.21024        4.23116
        4.24797        4.66029        5.06871        5.11813        5.35683
        5.36837        5.39542        5.41036        5.64506        5.69293
        5.69421        5.83778        6.04474        6.08675        6.08950
        6.23007       36.95901       51.50329       51.51313       51.55583
       51.59176
 Time used in FCKEIG, thr_jaco:   2.34D-01  2.30D-02  1.07D-07
 CPU and wall times used in FCKEIG, THR_FCKEIG:   2.34D-01  2.30D-02  2.45D-05
 -----------------------------------------------------------------------------

 *** DIIS iteration number    8
 RDSUPM called. NFMAT, ISYMDM(1:NFMAT)                     1
                     1

 ITDIIS, energy, error norm, change in energy, scr.thr., difden:
@ DIIS iter.   8    -360.760186389        4.14979D-04   -7.02D-07  -20    F

 (DIIS_RED) Control Parameters C2DIIS =         F NEVC =    8


 (DIIS_RED) B matrix:

               Column   1     Column   2     Column   3     Column   4     Column   5     Column   6
       1      14.14953420
       2       0.56901903     1.03832009
       3       0.81864810    -0.01863172     0.16317884
       4       0.02359371     0.08875643    -0.00373489     0.01135004
       5       0.01166695     0.00701290     0.00504987     0.00124448     0.00065325
       6      -0.00077030    -0.00025388     0.00074325     0.00032922     0.00006419     0.00008906
       7       0.00025436    -0.00011748     0.00009115     0.00000398     0.00004084     0.00000049
       8       0.00010910     0.00001660    -0.00000203     0.00000365     0.00000149     0.00000158

               Column   7     Column   8
       7       0.00000602
       8       0.00000043     0.00000017
    ==== End of matrix output ====

 DIIS C vector; C2DIIS = F, LAMBDA = -1.13D-07
   -0.000018   -0.000204    0.000191    0.001825    0.003751   -0.029740   -0.090515    1.114708
* Read MO coefficients from SIRIUS.RST with label "NEWORB  " and header info: 24Dec18  DIIS   8
      Virial theorem: -V/T =      2.003586
@      MULPOP N      -0.63; H       0.23; H       0.24; H       0.20; O      -0.73; O      -0.82; O      -0.64; O      -0.78; H       0.38; H       0.42; 
@             H       0.34; H       0.41; H       0.30; H       0.36; H       0.36; H       0.38; 

 DIIS Fock eigenvalues in symmetry 1
      -20.55085      -20.54219      -20.53749      -20.50716      -15.56329
       -1.33946       -1.30977       -1.29779       -1.26035       -1.14652
       -0.72400       -0.67450       -0.65784       -0.65041       -0.62708
       -0.61583       -0.60155       -0.55832       -0.54427       -0.54201
       -0.51857       -0.49075       -0.48569       -0.46440       -0.43379
        0.13984        0.20119        0.20804        0.22048        0.24928
        0.27659        0.29866        0.31173        0.32355        0.36972
        0.38512        0.47087        0.47956        0.55908        0.56486
        0.57169        0.58534        0.62902        0.63626        0.64077
        0.65317        0.71759        0.85017        0.92285        0.94099
        0.95998        0.99856        1.00269        1.01483        1.04161
        1.08153        1.10059        1.11795        1.15578        1.15853
        1.16717        1.17930        1.28985        1.32143        1.35105
        1.37010        1.39068        1.50021        1.53048        1.53465
        1.54401        1.56971        1.57398        1.58380        1.60079
        1.68146        1.69892        1.72197        1.73453        1.76846
        1.77011        1.79139        1.84694        1.86578        1.89399
        1.93615        1.96802        1.99860        2.01086        2.11686
        2.13644        2.21886        2.23630        2.28729        2.33306
        2.36289        2.37515        2.49130        2.52922        2.58868
        2.66459        2.67096        2.68979        2.69969        2.73586
        2.73795        2.81562        2.84761        2.88318        2.92023
        2.92490        2.94974        3.03035        3.13257        3.39839
        3.41963        3.43072        3.44996        3.46081        3.46840
[...]

 Principal values of diagonalized transition strength matrix:

             a.u.               
 1      -0.00000000
 2      -0.00000000
 3       0.00019040

 Principal axis of diagonalized transition strength matrix:


               Column   1     Column   2     Column   3
       1      -0.05168464    -0.07301836     0.99599047
       2      -0.38564245     0.92142275     0.04753960
       3       0.92119954     0.38163914     0.07578238
    ==== End of matrix output ====


 CCSD   oscillator strength matrix for state nr. 13 of symmetry 1
 CCSD  excitation energy:15.17451757


               Column   1     Column   2     Column   3
       1       0.00191072     0.00009120     0.00014538
       2       0.00009120     0.00000435     0.00000695
       3       0.00014538     0.00000695     0.00001104
    ==== End of matrix output ====

 Principal values of diagonalized oscillator strength matrix:

             a.u.               
 1      -0.00000002
 2       0.00000000
 3       0.00192614

 Principal axis of diagonalized oscillator strength matrix:


               Column   1     Column   2     Column   3
       1      -0.05168464    -0.07301836     0.99599047
       2      -0.38564245     0.92142275     0.04753960
       3       0.92119954     0.38163914     0.07578238
    ==== End of matrix output ====


 CCSD  Transition strength matrix for state nr. 14 of symmetry 1
 CCSD  excitation energy:15.24169566

 Gauge: length

               Column   1     Column   2     Column   3
       1     5.097950D-07   5.822579D-06  -7.786404D-06
       2     5.822579D-06   6.564488D-05  -8.781604D-05
       3    -7.786404D-06  -8.781604D-05   1.174743D-04
    ==== End of matrix output ====

 Principal values of diagonalized transition strength matrix:

             a.u.               
 1      -0.00000001
 2      -0.00000000
 3       0.00018364

 Principal axis of diagonalized transition strength matrix:


               Column   1     Column   2     Column   3
       1       0.96903134     0.24117907    -0.05301819
       2      -0.22424795     0.76956978    -0.59789230
       3      -0.10339791     0.59126560     0.79982115
    ==== End of matrix output ====


 CCSD   oscillator strength matrix for state nr. 14 of symmetry 1
 CCSD  excitation energy:15.24169566


               Column   1     Column   2     Column   3
       1       0.00000518     0.00005916    -0.00007912
       2       0.00005916     0.00066703    -0.00089231
       3      -0.00007912    -0.00089231     0.00119367
    ==== End of matrix output ====

 Principal values of diagonalized oscillator strength matrix:

             a.u.               
 1      -0.00000007
 2      -0.00000000
 3       0.00186595

 Principal axis of diagonalized oscillator strength matrix:


               Column   1     Column   2     Column   3
       1       0.96903134     0.24117907    -0.05301819
       2      -0.22424795     0.76956978    -0.59789230
       3      -0.10339791     0.59126560     0.79982115
    ==== End of matrix output ====


 CCSD  Transition strength matrix for state nr. 15 of symmetry 1
 CCSD  excitation energy:15.29782414

 Gauge: length

               Column   1     Column   2     Column   3
       1     7.787825D-05   8.019034D-05  -1.012802D-04
       2     8.019034D-05   8.256349D-05  -1.042861D-04
       3    -1.012802D-04  -1.042861D-04   1.317142D-04
    ==== End of matrix output ====

 Principal values of diagonalized transition strength matrix:

             a.u.               
 1      -0.00000000
 2      -0.00000000
 3       0.00029216

 Principal axis of diagonalized transition strength matrix:


               Column   1     Column   2     Column   3
       1      -0.40286640     0.75573565    -0.51629671
       2       0.84261283     0.08599911    -0.53160867
       3       0.35735456     0.64920550     0.67143870
    ==== End of matrix output ====


 CCSD   oscillator strength matrix for state nr. 15 of symmetry 1
 CCSD  excitation energy:15.29782414


               Column   1     Column   2     Column   3
       1       0.00079425     0.00081783    -0.00103291
       2       0.00081783     0.00084203    -0.00106357
       3      -0.00103291    -0.00106357     0.00134329
    ==== End of matrix output ====

 Principal values of diagonalized oscillator strength matrix:

             a.u.               
 1      -0.00000005
 2       0.00000000
 3       0.00297962

 Principal axis of diagonalized oscillator strength matrix:


               Column   1     Column   2     Column   3
       1      -0.40286640     0.75573565    -0.51629671
       2       0.84261283     0.08599911    -0.53160867
       3       0.35735456     0.64920550     0.67143870
    ==== End of matrix output ====

  Total time for    135 linear response residues:     134.88 seconds.
  

 *******************************************************************************
 *******************************************************************************
 *                                                                             *
 *                                                                             *
 *                   SUMMARY OF COUPLED CLUSTER CALCULATION                    *
 *                                                                             *
 *                                                                             *
 *******************************************************************************
 *******************************************************************************

                                                                                
                                                                                
            Total SCF   energy:                  -360.7601864130                
            Total MP2   energy:                  -361.8725342448                
            Total CCSD  energy:                  -361.9101954853                
                                                                                
                                                                                
            Total SCF   energy:                  -360.7601864130                
            Total RSTAR energy:                  -361.9101954853                
            Total CCSD  energy:                  -361.9103446395                
                                                                                
                                                                                
            Total SCF   energy:                  -360.7601864130                
            Total RSTAR energy:                  -361.9103446395                
            Total CCSD  energy:                  -361.9103459537                
                                                                                
                                                                                
            Total SCF   energy:                  -360.7601864130                
            Total RSTAR energy:                  -361.9103459537                
            Total CCSD  energy:                  -361.9103460721                
                                                                                
                                                                                
            Total SCF   energy:                  -360.7601864130                
            Total RSTAR energy:                  -361.9103460721                
            Total CCSD  energy:                  -361.9103460762                
                                                                                
                                                                                
            Total SCF   energy:                  -360.7601864130                
            Total RSTAR energy:                  -361.9103460762                
            Total CCSD  energy:                  -361.9103460765                
            CCSD Total  energy:                  -362.3360595104                
            CCSD E(QM/MM)     :                    -0.4200458117                
                                                                                
                                                                                
                                                                                
 +=============================================================================+
 |  sym. | Exci.  |        CCSD       Excitation energies            | ||T1||  |
 |(spin, |        +------------------------------------------------------------+
 | spat) |        |     Hartree    |       eV.      |     cm-1       |    %    |
 +=============================================================================+
 | ^1A   |    1   |    14.8284284  |     403.50206  |   3254463.824  |  88.08  |
 | ^1A   |    2   |    14.8869009  |     405.09318  |   3267297.056  |  88.57  |
 | ^1A   |    3   |    14.8947351  |     405.30636  |   3269016.469  |  88.59  |
 | ^1A   |    4   |    14.9767911  |     407.53922  |   3287025.678  |  88.02  |
 | ^1A   |    5   |    15.0093888  |     408.42624  |   3294180.034  |  87.77  |
 | ^1A   |    6   |    15.0472067  |     409.45532  |   3302480.117  |  87.77  |
 | ^1A   |    7   |    15.0574973  |     409.73535  |   3304738.648  |  87.64  |
 | ^1A   |    8   |    15.0821403  |     410.40592  |   3310147.161  |  87.86  |
 | ^1A   |    9   |    15.1067809  |     411.07642  |   3315555.132  |  87.74  |
 | ^1A   |   10   |    15.1185389  |     411.39637  |   3318135.713  |  87.70  |
 | ^1A   |   11   |    15.1296197  |     411.69789  |   3320567.667  |  87.83  |
 | ^1A   |   12   |    15.1449378  |     412.11472  |   3323929.612  |  87.68  |
 | ^1A   |   13   |    15.1745176  |     412.91963  |   3330421.620  |  87.68  |
 | ^1A   |   14   |    15.2416957  |     414.74764  |   3345165.505  |  87.88  |
 | ^1A   |   15   |    15.2978241  |     416.27497  |   3357484.282  |  87.36  |
 +=============================================================================+
                                                                                
                                                                                
     Total energies in Hartree:                                                 
             1 ^1A       -347.0875853127                                        
             2 ^1A       -347.0291128057                                        
             3 ^1A       -347.0212785835                                        
             4 ^1A       -346.9392225880                                        
             5 ^1A       -346.9066249399                                        
             6 ^1A       -346.8688069827                                        
             7 ^1A       -346.8585163552                                        
             8 ^1A       -346.8338733564                                        
             9 ^1A       -346.8092328298                                        
            10 ^1A       -346.7974748364                                        
            11 ^1A       -346.7863940388                                        
            12 ^1A       -346.7710758908                                        
            13 ^1A       -346.7414961252                                        
            14 ^1A       -346.6743180423                                        
            15 ^1A       -346.6181895628                                        
                                                                                
                                                                                
 +=============================================================================+
 |  sym. | Exci.  |        CCSD       Length   Gauge Oscillator Strength       |
 |(spin, |        +------------------------------------------------------------+
 | spat) |        | Dipole Strength(a.u.) | Oscillator strength  | Direction   |
 +=============================================================================+
 | ^1A   |    1   |        0.0009056      |      0.0089525       |  (Y,Z)      |
 | ^1A   |    2   |        0.0041291      |      0.0409800       |  (Y,Z)      |
 | ^1A   |    3   |        0.0039079      |      0.0388052       |  (Y,Z)      |
 | ^1A   |    4   |        0.0008492      |      0.0084791       |  (Y,Z)      |
 | ^1A   |    5   |        0.0007785      |      0.0077895       |  (Y,Z)      |
 | ^1A   |    6   |        0.0003889      |      0.0039008       |  (Y,Z)      |
 | ^1A   |    7   |        0.0002265      |      0.0022735       |  (Y,Z)      |
 | ^1A   |    8   |        0.0004279      |      0.0043023       |  (Y,Z)      |
 | ^1A   |    9   |        0.0001788      |      0.0018011       |  (Y,Z)      |
 | ^1A   |   10   |        0.0000994      |      0.0010023       |  (Y,Z)      |
 | ^1A   |   11   |        0.0008223      |      0.0082945       |  (Y,Z)      |
 | ^1A   |   12   |        0.0001032      |      0.0010421       |  (Y,Z)      |
 | ^1A   |   13   |        0.0001904      |      0.0019261       |  (Y,Z)      |
 | ^1A   |   14   |        0.0001836      |      0.0018659       |  (Y,Z)      |
 | ^1A   |   15   |        0.0002922      |      0.0029796       |  (Y,Z)      |
 +=============================================================================+

  1 a.u. =        27.21138 eV.  
  1 a.u. =    219474.62934 cm-1.
  

 *******************************************************************************
 *******************************************************************************
 *                                                                             *
 *                                                                             *
 *                      END OF COUPLED CLUSTER CALCULATION                     *
 *                                                                             *
 *                                                                             *
 *******************************************************************************
 *******************************************************************************


 CPU and wall time for CC :  599424.463  128093.619

 
     Date and time (Linux)  : Wed Dec 26 11:15:09 2018
     Host name              : n-62-30-16                              


                      .-------------------------------------.
                      | End of Coupled Cluster Section (CC) |
                      `-------------------------------------'

  Total CPU  time used in DALTON: 166 hours 41 minutes 34 seconds
  Total wall time used in DALTON:  35 hours 37 minutes  4 seconds

 
     Date and time (Linux)  : Wed Dec 26 11:15:09 2018
     Host name              : n-62-30-16                              
  

 +---------------------------------------------------------+ 
 | List of selected calculated molecular properties (a.u.) | 
 +---------------------------------------------------------+ 

  Properties are read from unit number                      4

 CCSD       properties :
 #  1 1 CCSD/MM  Ground state Energy =    -362.3360595104
 #  2 1 E_QM/MM  Ground state Energy =      -0.4200458117
 #  3 1 Sy: 1 Sp: 1 Exc:  1 E_tot:   -347.0875853127 w:     14.8284283859 E_grs:   -361.9160136987
 #  4 1 Exctot   Excited state Energy =    -347.0875853127
 #  5 1 Sy: 1 Sp: 1 Exc:  2 E_tot:   -347.0291128057 w:     14.8869008929 E_grs:   -361.9160136987
 #  6 1 Exctot   Excited state Energy =    -347.0291128057
 #  7 1 Sy: 1 Sp: 1 Exc:  3 E_tot:   -347.0212785835 w:     14.8947351152 E_grs:   -361.9160136987
 #  8 1 Exctot   Excited state Energy =    -347.0212785835
 #  9 1 Sy: 1 Sp: 1 Exc:  4 E_tot:   -346.9392225880 w:     14.9767911106 E_grs:   -361.9160136987
 # 10 1 Exctot   Excited state Energy =    -346.9392225880
 # 11 1 Sy: 1 Sp: 1 Exc:  5 E_tot:   -346.9066249399 w:     15.0093887588 E_grs:   -361.9160136987
 # 12 1 Exctot   Excited state Energy =    -346.9066249399
 # 13 1 Sy: 1 Sp: 1 Exc:  6 E_tot:   -346.8688069827 w:     15.0472067160 E_grs:   -361.9160136987
 # 14 1 Exctot   Excited state Energy =    -346.8688069827
 # 15 1 Sy: 1 Sp: 1 Exc:  7 E_tot:   -346.8585163552 w:     15.0574973435 E_grs:   -361.9160136987
 # 16 1 Exctot   Excited state Energy =    -346.8585163552
 # 17 1 Sy: 1 Sp: 1 Exc:  8 E_tot:   -346.8338733564 w:     15.0821403423 E_grs:   -361.9160136987
 # 18 1 Exctot   Excited state Energy =    -346.8338733564
 # 19 1 Sy: 1 Sp: 1 Exc:  9 E_tot:   -346.8092328298 w:     15.1067808689 E_grs:   -361.9160136987
 # 20 1 Exctot   Excited state Energy =    -346.8092328298
 # 21 1 Sy: 1 Sp: 1 Exc: 10 E_tot:   -346.7974748364 w:     15.1185388623 E_grs:   -361.9160136987
 # 22 1 Exctot   Excited state Energy =    -346.7974748364
 # 23 1 Sy: 1 Sp: 1 Exc: 11 E_tot:   -346.7863940388 w:     15.1296196599 E_grs:   -361.9160136987
 # 24 1 Exctot   Excited state Energy =    -346.7863940388
 # 25 1 Sy: 1 Sp: 1 Exc: 12 E_tot:   -346.7710758908 w:     15.1449378079 E_grs:   -361.9160136987
 # 26 1 Exctot   Excited state Energy =    -346.7710758908
 # 27 1 Sy: 1 Sp: 1 Exc: 13 E_tot:   -346.7414961252 w:     15.1745175734 E_grs:   -361.9160136987
 # 28 1 Exctot   Excited state Energy =    -346.7414961252
 # 29 1 Sy: 1 Sp: 1 Exc: 14 E_tot:   -346.6743180423 w:     15.2416956564 E_grs:   -361.9160136987
 # 30 1 Exctot   Excited state Energy =    -346.6743180423
 # 31 1 Sy: 1 Sp: 1 Exc: 15 E_tot:   -346.6181895628 w:     15.2978241359 E_grs:   -361.9160136987
 # 32 1 Exctot   Excited state Energy =    -346.6181895628
 # 33 1 |<O|XDIPLEN |i(14.828428)>| =     0.02060441
 # 35 1 |<O|XDIPLEN |i(14.886901)>| =     0.04444746
 # 37 1 |<O|XDIPLEN |i(14.894735)>| =     0.01719629
 # 39 1 |<O|XDIPLEN |i(14.976791)>| =     0.01579943
 # 41 1 |<O|XDIPLEN |i(15.009389)>| =     0.01827526
 # 43 1 |<O|XDIPLEN |i(15.047207)>| =     0.00616458
 # 45 1 |<O|XDIPLEN |i(15.057497)>| =     0.00873301
 # 47 1 |<O|XDIPLEN |i(15.082140)>| =     0.00409480
 # 49 1 |<O|XDIPLEN |i(15.106781)>| =     0.00731884
 # 51 1 |<O|XDIPLEN |i(15.118539)>| =     0.00031340
 # 53 1 |<O|XDIPLEN |i(15.129620)>| =     0.01990991
 # 55 1 |<O|XDIPLEN |i(15.144938)>| =     0.00415637
 # 57 1 |<O|XDIPLEN |i(15.174518)>| =     0.01374317
 # 59 1 |<O|XDIPLEN |i(15.241696)>| =     0.00071400
 # 61 1 |<O|XDIPLEN |i(15.297824)>| =     0.00882487
 # 63 1 |<O|YDIPLEN |i(14.828428)>| =     0.00829040
 # 65 1 |<O|YDIPLEN |i(14.886901)>| =     0.01795108
 # 67 1 |<O|YDIPLEN |i(14.894735)>| =     0.05983607
 # 69 1 |<O|YDIPLEN |i(14.976791)>| =     0.01123524
 # 71 1 |<O|YDIPLEN |i(15.009389)>| =     0.00261046
 # 73 1 |<O|YDIPLEN |i(15.047207)>| =     0.01857146
 # 75 1 |<O|YDIPLEN |i(15.057497)>| =     0.00828328
 # 77 1 |<O|YDIPLEN |i(15.082140)>| =     0.00686135
 # 79 1 |<O|YDIPLEN |i(15.106781)>| =     0.00356866
 # 81 1 |<O|YDIPLEN |i(15.118539)>| =     0.00550490
 # 83 1 |<O|YDIPLEN |i(15.129620)>| =     0.00725952
 # 85 1 |<O|YDIPLEN |i(15.144938)>| =     0.00765802
 # 87 1 |<O|YDIPLEN |i(15.174518)>| =     0.00065574
 # 89 1 |<O|YDIPLEN |i(15.241696)>| =     0.00810215
 # 91 1 |<O|YDIPLEN |i(15.297824)>| =     0.00908645
 # 93 1 |<O|ZDIPLEN |i(14.828428)>| =     0.02030606
 # 95 1 |<O|ZDIPLEN |i(14.886901)>| =     0.04279386
 # 97 1 |<O|ZDIPLEN |i(14.894735)>| =     0.00564604
 # 99 1 |<O|ZDIPLEN |i(14.976791)>| =     0.02175702
 #101 1 |<O|ZDIPLEN |i(15.009389)>| =     0.02092040
 #103 1 |<O|ZDIPLEN |i(15.047207)>| =     0.00244128
 #105 1 |<O|ZDIPLEN |i(15.057497)>| =     0.00903344
 #107 1 |<O|ZDIPLEN |i(15.082140)>| =     0.01907974
 #109 1 |<O|ZDIPLEN |i(15.106781)>| =     0.01060821
 #111 1 |<O|ZDIPLEN |i(15.118539)>| =     0.00830907
 #113 1 |<O|ZDIPLEN |i(15.129620)>| =     0.01931949
 #115 1 |<O|ZDIPLEN |i(15.144938)>| =     0.00522452
 #117 1 |<O|ZDIPLEN |i(15.174518)>| =     0.00104484
 #119 1 |<O|ZDIPLEN |i(15.241696)>| =     0.01083855
 #121 1 |<O|ZDIPLEN |i(15.297824)>| =     0.01147668

 THE_END   
