

     ************************************************************************
     *************** Dalton - An Electronic Structure Program ***************
     ************************************************************************

    This is output from DALTON release Dalton2017.alpha (2016)
         ( Web site: http://daltonprogram.org )

   ----------------------------------------------------------------------------

    NOTE:
     
    Dalton is an experimental code for the evaluation of molecular
    properties using (MC)SCF, DFT, CI, and CC wave functions.
    The authors accept no responsibility for the performance of
    the code or for the correctness of the results.
     
    The code (in whole or part) is provided under a licence and
    is not to be reproduced for further distribution without
    the written permission of the authors or their representatives.
     
    See the home page "http://daltonprogram.org" for further information.
     
    If results obtained with this code are published,
    the appropriate citations would be both of:
     
       K. Aidas, C. Angeli, K. L. Bak, V. Bakken, R. Bast,
       L. Boman, O. Christiansen, R. Cimiraglia, S. Coriani,
       P. Dahle, E. K. Dalskov, U. Ekstroem,
       T. Enevoldsen, J. J. Eriksen, P. Ettenhuber, B. Fernandez,
       L. Ferrighi, H. Fliegl, L. Frediani, K. Hald, A. Halkier,
       C. Haettig, H. Heiberg, T. Helgaker, A. C. Hennum,
       H. Hettema, E. Hjertenaes, S. Hoest, I.-M. Hoeyvik,
       M. F. Iozzi, B. Jansik, H. J. Aa. Jensen, D. Jonsson,
       P. Joergensen, J. Kauczor, S. Kirpekar,
       T. Kjaergaard, W. Klopper, S. Knecht, R. Kobayashi, H. Koch,
       J. Kongsted, A. Krapp, K. Kristensen, A. Ligabue,
       O. B. Lutnaes, J. I. Melo, K. V. Mikkelsen, R. H. Myhre,
       C. Neiss, C. B. Nielsen, P. Norman, J. Olsen,
       J. M. H. Olsen, A. Osted, M. J. Packer, F. Pawlowski,
       T. B. Pedersen, P. F. Provasi, S. Reine, Z. Rinkevicius,
       T. A. Ruden, K. Ruud, V. Rybkin, P. Salek, C. C. M. Samson,
       A. Sanchez de Meras, T. Saue, S. P. A. Sauer,
       B. Schimmelpfennig, K. Sneskov, A. H. Steindal,
       K. O. Sylvester-Hvid, P. R. Taylor, A. M. Teale,
       E. I. Tellgren, D. P. Tew, A. J. Thorvaldsen, L. Thoegersen,
       O. Vahtras, M. A. Watson, D. J. D. Wilson, M. Ziolkowski
       and H. Agren,
       "The Dalton quantum chemistry program system",
       WIREs Comput. Mol. Sci. 2014, 4:269–284 (doi: 10.1002/wcms.1172)
     
    and
     
       Dalton, a Molecular Electronic Structure Program,
       Release Dalton2017.alpha (2016), see http://daltonprogram.org
   ----------------------------------------------------------------------------

    Authors in alphabetical order (major contribution(s) in parenthesis):

  Kestutis Aidas,           Vilnius University,           Lithuania   (QM/MM)
  Celestino Angeli,         University of Ferrara,        Italy       (NEVPT2)
  Keld L. Bak,              UNI-C,                        Denmark     (AOSOPPA, non-adiabatic coupling, magnetic properties)
  Vebjoern Bakken,          University of Oslo,           Norway      (DALTON; geometry optimizer, symmetry detection)
  Radovan Bast,             UiT The Arctic U. of Norway,  Norway      (DALTON installation and execution frameworks)
  Pablo Baudin,             University of Valencia,       Spain       (Cholesky excitation energies)
  Linus Boman,              NTNU,                         Norway      (Cholesky decomposition and subsystems)
  Ove Christiansen,         Aarhus University,            Denmark     (CC module)
  Renzo Cimiraglia,         University of Ferrara,        Italy       (NEVPT2)
  Sonia Coriani,            University of Trieste,        Italy       (CC module, MCD in RESPONS)
  Janusz Cukras,            University of Trieste,        Italy       (MChD in RESPONS)
  Paal Dahle,               University of Oslo,           Norway      (Parallelization)
  Erik K. Dalskov,          UNI-C,                        Denmark     (SOPPA)
  Thomas Enevoldsen,        Univ. of Southern Denmark,    Denmark     (SOPPA)
  Janus J. Eriksen,         Aarhus University,            Denmark     (Polarizable embedding model, TDA)
  Rasmus Faber,             University of Copenhagen,     Denmark     (Vib.avg. NMR with SOPPA, parallel AO-SOPPA)
  Berta Fernandez,          U. of Santiago de Compostela, Spain       (doublet spin, ESR in RESPONS)
  Lara Ferrighi,            Aarhus University,            Denmark     (PCM Cubic response)
  Heike Fliegl,             University of Oslo,           Norway      (CCSD(R12))
  Luca Frediani,            UiT The Arctic U. of Norway,  Norway      (PCM)
  Bin Gao,                  UiT The Arctic U. of Norway,  Norway      (Gen1Int library)
  Christof Haettig,         Ruhr-University Bochum,       Germany     (CC module)
  Kasper Hald,              Aarhus University,            Denmark     (CC module)
  Asger Halkier,            Aarhus University,            Denmark     (CC module)
  Frederik Beyer Hansen,    University of Copenhagen,     Denmark     (Parallel AO-SOPPA)
  Erik D. Hedegaard,        Univ. of Southern Denmark,    Denmark     (Polarizable embedding model, QM/MM)
  Hanne Heiberg,            University of Oslo,           Norway      (geometry analysis, selected one-electron integrals)
  Trygve Helgaker,          University of Oslo,           Norway      (DALTON; ABACUS, ERI, DFT modules, London, and much more)
  Alf Christian Hennum,     University of Oslo,           Norway      (Parity violation)
  Hinne Hettema,            University of Auckland,       New Zealand (quadratic response in RESPONS; SIRIUS supersymmetry)
  Eirik Hjertenaes,         NTNU,                         Norway      (Cholesky decomposition)
  Pi A. B. Haase,           University of Copenhagen,     Denmark     (Triplet AO-SOPPA)
  Maria Francesca Iozzi,    University of Oslo,           Norway      (RPA)
  Brano Jansik              Technical Univ. of Ostrava    Czech Rep.  (DFT cubic response)
  Hans Joergen Aa. Jensen,  Univ. of Southern Denmark,    Denmark     (DALTON; SIRIUS, RESPONS, ABACUS modules, London, and much more)
  Dan Jonsson,              UiT The Arctic U. of Norway,  Norway      (cubic response in RESPONS module)
  Poul Joergensen,          Aarhus University,            Denmark     (RESPONS, ABACUS, and CC modules)
  Maciej Kaminski,          University of Warsaw,         Poland      (CPPh in RESPONS)
  Joanna Kauczor,           Linkoeping University,        Sweden      (Complex polarization propagator (CPP) module)
  Sheela Kirpekar,          Univ. of Southern Denmark,    Denmark     (Mass-velocity & Darwin integrals)
  Wim Klopper,              KIT Karlsruhe,                Germany     (R12 code in CC, SIRIUS, and ABACUS modules)
  Stefan Knecht,            ETH Zurich,                   Switzerland (Parallel CI and MCSCF)
  Rika Kobayashi,           Australian National Univ.,    Australia   (DIIS in CC, London in MCSCF)
  Henrik Koch,              NTNU,                         Norway      (CC module, Cholesky decomposition)
  Jacob Kongsted,           Univ. of Southern Denmark,    Denmark     (Polarizable embedding model, QM/MM)
  Andrea Ligabue,           University of Modena,         Italy       (CTOCD, AOSOPPA)
  Nanna H. List             Univ. of Southern Denmark,    Denmark     (Polarizable embedding model)
  Ola B. Lutnaes,           University of Oslo,           Norway      (DFT Hessian)
  Juan I. Melo,             University of Buenos Aires,   Argentina   (LRESC, Relativistic Effects on NMR Shieldings)
  Kurt V. Mikkelsen,        University of Copenhagen,     Denmark     (MC-SCRF and QM/MM)
  Rolf H. Myhre,            NTNU,                         Norway      (Cholesky, subsystems and ECC2)
  Christian Neiss,          Univ. Erlangen-Nuernberg,     Germany     (CCSD(R12))
  Christian B. Nielsen,     University of Copenhagen,     Denmark     (QM/MM)
  Patrick Norman,           Linkoeping University,        Sweden      (Cubic response and complex frequency response in RESPONS)
  Jeppe Olsen,              Aarhus University,            Denmark     (SIRIUS CI/density modules)
  Jogvan Magnus H. Olsen,   Univ. of Southern Denmark,    Denmark     (Polarizable embedding model, QM/MM)
  Anders Osted,             Copenhagen University,        Denmark     (QM/MM)
  Martin J. Packer,         University of Sheffield,      UK          (SOPPA)
  Filip Pawlowski,          Kazimierz Wielki University,  Poland      (CC3)
  Morten N. Pedersen,       Univ. of Southern Denmark,    Denmark     (Polarizable embedding model)
  Thomas B. Pedersen,       University of Oslo,           Norway      (Cholesky decomposition)
  Patricio F. Provasi,      University of Northeastern,   Argentina   (Analysis of coupling constants in localized orbitals)
  Zilvinas Rinkevicius,     KTH Stockholm,                Sweden      (open-shell DFT, ESR)
  Elias Rudberg,            KTH Stockholm,                Sweden      (DFT grid and basis info)
  Torgeir A. Ruden,         University of Oslo,           Norway      (Numerical derivatives in ABACUS)
  Kenneth Ruud,             UiT The Arctic U. of Norway,  Norway      (DALTON; ABACUS magnetic properties and much more)
  Pawel Salek,              KTH Stockholm,                Sweden      (DALTON; DFT code)
  Claire C. M. Samson       University of Karlsruhe       Germany     (Boys localization, r12 integrals in ERI)
  Alfredo Sanchez de Meras, University of Valencia,       Spain       (CC module, Cholesky decomposition)
  Trond Saue,               Paul Sabatier University,     France      (direct Fock matrix construction)
  Stephan P. A. Sauer,      University of Copenhagen,     Denmark     (SOPPA(CCSD), SOPPA prop., AOSOPPA, vibrational g-factors)
  Bernd Schimmelpfennig,    Forschungszentrum Karlsruhe,  Germany     (AMFI module)
  Kristian Sneskov,         Aarhus University,            Denmark     (Polarizable embedding model, QM/MM)
  Arnfinn H. Steindal,      UiT The Arctic U. of Norway,  Norway      (parallel QM/MM, Polarizable embedding model)
  Casper Steinmann,         Univ. of Southern Denmark,    Denmark     (QFIT, Polarizable embedding model)
  K. O. Sylvester-Hvid,     University of Copenhagen,     Denmark     (MC-SCRF)
  Peter R. Taylor,          VLSCI/Univ. of Melbourne,     Australia   (Symmetry handling ABACUS, integral transformation)
  Andrew M. Teale,          University of Nottingham,     England     (DFT-AC, DFT-D)
  David P. Tew,             University of Bristol,        England     (CCSD(R12))
  Olav Vahtras,             KTH Stockholm,                Sweden      (triplet response, spin-orbit, ESR, TDDFT, open-shell DFT)
  David J. Wilson,          La Trobe University,          Australia   (DFT Hessian and DFT magnetizabilities)
  Hans Agren,               KTH Stockholm,                Sweden      (SIRIUS module, RESPONS, MC-SCRF solvation model)
 --------------------------------------------------------------------------------

     Date and time (Linux)  : Mon Dec 24 23:38:04 2018
     Host name              : n-62-30-18                              

 * Work memory size             :  1280000000 =  9.537 gigabytes.

 * Directories for basis set searches:
   1) /zhome/37/3/129401/NH3NH4/CCSD/AIMD_SAMPLING/nh3_4h2o_nd
   2) /zhome/9a/4/124800/source/dalton/build-mlcc/basis


Compilation information
-----------------------

 Who compiled             | rfaber
 Host                     | hpclogin1
 System                   | Linux-2.6.32-696.1.1.el6.x86_64
 CMake generator          | Unix Makefiles
 Processor                | x86_64
 64-bit integers          | ON
 MPI                      | OFF
 Fortran compiler         | /opt/intel/2016update2/compilers_and_libraries_201
                          | 6.2.181/linux/bin/intel64/ifort
 Fortran compiler version | ifort (IFORT) 16.0.2 20160204
 C compiler               | /opt/intel/2016update2/compilers_and_libraries_201
                          | 6.2.181/linux/bin/intel64/icc
 C compiler version       | icc (ICC) 16.0.2 20160204
 C++ compiler             | /opt/intel/2016update2/compilers_and_libraries_201
                          | 6.2.181/linux/bin/intel64/icpc
 C++ compiler version     | icpc (ICC) 16.0.2 20160204
 Static linking           | OFF
 Last Git revision        | bb4d1599ca5680a9f3980451fc8bbefdba436d59
 Git branch               | mlcc
 Configuration time       | 2017-06-13 16:11:03.928841


   Content of the .dal input file
 ----------------------------------

**DALTON
.RUN WAVE FUNCTIONS
*QMMM
.QMMM
**INTEGRALS
.DIPLEN
**WAVE FUNCTIONS
.CC
*PRINT
!To check the origin of excit
.PRINTL
   0 11
*SCF INP
.THRESH
1.0D-7
*CC INP
.CCSD
.THRLEQ
 1.0D-9
.THRENR
 1.0D-10
.FROIMP
4
0
.PRINT
 1
.MAX IT
 1200
.MAXRED
 1200
.MXLRV
1199
*CCSLV
.CCMM
.MXSLIT
200
.MXINIT
4 5
*CCEXCI
.NCCEXC
 15
.CVSEPARA
1
1
*CCLRSD
.DIPOLE
**END OF DALTON INPUT


   Content of the .mol file
 ----------------------------

ATOMBASIS


Atomtypes=4 Charge=0 Nosymm Angstrom
   7.00000    1    Basis=6-311G**
N          0.000000        0.000000        0.000000
   1.00000    3    Basis=6-311G**
H          0.785187       -0.686807        0.149601
H         -0.124668        0.585697        0.827184
H         -0.835843       -0.634293       -0.031997
   8.00000    4    Basis=6-311G**
O          3.079530       -0.757508        1.528652
O          0.665628        0.665524       -2.508903
O         -0.113484        1.953834        2.468624
O         -2.638391       -1.553433       -0.453166
   1.00000    8    Basis=6-311G**
H          2.959421        0.134691        1.915384
H          4.055762       -0.913320        1.507245
H          1.673087        0.798516       -2.511640
H          0.328743        0.358812       -1.522245
H         -0.666258        1.218478        2.889946
H          0.414153        2.306844        3.213936
H         -2.852705       -0.954105       -1.243289
H         -3.270613       -1.237992        0.230996


       *******************************************************************
       *********** Output from DALTON general input processing ***********
       *******************************************************************

 --------------------------------------------------------------------------------
   Overall default print level:    0
   Print level for DALTON.STAT:    1

    HERMIT 1- and 2-electron integral sections will be executed
    "Old" integral transformation used (limited to max 255 basis functions)
    Wave function sections will be executed (SIRIUS module)
 --------------------------------------------------------------------------------


 Changes of defaults for *QMMM  :
 --------------------------------

 +------------------+
 |  WORD: | CHANGE: |
 +------------------+
 |   QMMM |       T |
 +------------------+
 


   ****************************************************************************
   *************** Output of molecule and basis set information ***************
   ****************************************************************************


    The two title cards from your ".mol" input:
    ------------------------------------------------------------------------
 1:                                                                         
 2:                                                                         
    ------------------------------------------------------------------------

  Coordinates are entered in Angstrom and converted to atomic units.
          - Conversion factor : 1 bohr = 0.52917721 A

  Atomic type no.    1
  --------------------
  Nuclear charge:   7.00000
  Number of symmetry independent centers:    1
  Number of basis sets to read;    2
  The basis set is "6-311G**" from the basis set library.
  Basis set file used for this atomic type with Z =   7 :
     "/zhome/9a/4/124800/source/dalton/build-mlcc/basis/6-311G**"

  Info about the basis set file: your basis has no documentation.
  Basis set: 6-311G**                                                                        

  Atomic type no.    2
  --------------------
  Nuclear charge:   1.00000
  Number of symmetry independent centers:    3
  Number of basis sets to read;    2
  The basis set is "6-311G**" from the basis set library.
  Basis set file used for this atomic type with Z =   1 :
     "/zhome/9a/4/124800/source/dalton/build-mlcc/basis/6-311G**"

  Info about the basis set file: your basis has no documentation.
  Basis set: 6-311G**                                                                        

  Atomic type no.    3
  --------------------
  Nuclear charge:   8.00000
  Number of symmetry independent centers:    4
  Number of basis sets to read;    2
  The basis set is "6-311G**" from the basis set library.
  Basis set file used for this atomic type with Z =   8 :
     "/zhome/9a/4/124800/source/dalton/build-mlcc/basis/6-311G**"

  Info about the basis set file: your basis has no documentation.
  Basis set: 6-311G**                                                                        

  Atomic type no.    4
  --------------------
  Nuclear charge:   1.00000
  Number of symmetry independent centers:    8
  Number of basis sets to read;    2
  The basis set is "6-311G**" from the basis set library.
  Basis set file used for this atomic type with Z =   1 :
     "/zhome/9a/4/124800/source/dalton/build-mlcc/basis/6-311G**"

  Info about the basis set file: your basis has no documentation.
  Basis set: 6-311G**                                                                        


                         SYMGRP: Point group information
                         -------------------------------

@    Point group: C1 


                                 Isotopic Masses
                                 ---------------

                           N          14.003074
                           H           1.007825
                           H           1.007825
                           H           1.007825
                           O          15.994915
                           O          15.994915
                           O          15.994915
                           O          15.994915
                           H           1.007825
                           H           1.007825
                           H           1.007825
                           H           1.007825
                           H           1.007825
                           H           1.007825
                           H           1.007825
                           H           1.007825

                       Total mass:    89.068809 amu
                       Natural abundance:  98.514 %

 Center-of-mass coordinates (a.u.):    0.389811    0.125544    0.467306


  Atoms and basis sets
  --------------------

  Number of atom types :    4
  Total number of atoms:   16

  label    atoms   charge   prim   cont     basis
  ----------------------------------------------------------------------
  N           1    7.0000    31    18      [11s5p1d|4s3p1d]                                   
  H           3    1.0000     8     6      [5s1p|3s1p]                                        
  O           4    8.0000    31    18      [11s5p1d|4s3p1d]                                   
  H           8    1.0000     8     6      [5s1p|3s1p]                                        
  ----------------------------------------------------------------------
  total:     16   50.0000   243   156
  ----------------------------------------------------------------------
  Spherical harmonic basis used.

  Threshold for neglecting AO integrals:  1.00D-12


  Cartesian Coordinates (a.u.)
  ----------------------------

  Total number of coordinates:   48
  N       :     1  x   0.0000000000    2  y   0.0000000000    3  z   0.0000000000
  H       :     4  x   1.4837883869    5  y  -1.2978771307    6  z   0.2827049180
  H       :     7  x  -0.2355883766    8  y   1.1068069222    9  z   1.5631512150
  H       :    10  x  -1.5795143535   11  y  -1.1986400530   12  z  -0.0604655668
  O       :    13  x   5.8194682937   14  y  -1.4314826575   15  z   2.8887336204
  O       :    16  x   1.2578546211   17  y   1.2576580896   18  z  -4.7411395442
  O       :    19  x  -0.2144536796   20  y   3.6922111537   21  z   4.6650232656
  O       :    22  x  -4.9858364006   23  y  -2.9355629235   24  z  -0.8563596292
  H       :    25  x   5.5924951786   26  y   0.2545291015   27  z   3.6195511842
  H       :    28  x   7.6642794082   29  y  -1.7259246645   30  z   2.8482802533
  H       :    31  x   3.1616762133   32  y   1.5089765464   33  z  -4.7463117246
  H       :    34  x   0.6212342355   35  y   0.6780564104   36  z  -2.8766261451
  H       :    37  x  -1.2590451486   38  y   2.3025897093   39  z   5.4612064560
  H       :    40  x   0.7826357438   41  y   4.3593033731   42  z   6.0734588233
  H       :    43  x  -5.3908311654   44  y  -1.8029971445   45  z  -2.3494757042
  H       :    46  x  -6.1805628308   47  y  -2.3394658249   48  z   0.4365191760


   Interatomic separations (in Angstrom):
   --------------------------------------

            N           H           H           H           O           O     
            ------      ------      ------      ------      ------      ------
 N     :    0.000000
 H     :    1.053851    0.000000
 H     :    1.021184    1.704764    0.000000
 H     :    1.049755    1.632015    1.652978    0.000000
 O     :    3.520526    2.677833    3.544452    4.216747    0.000000
 O     :    2.679660    2.985086    3.429346    3.174745    4.914651    0.000000
 O     :    3.150310    3.627459    2.136878    3.670601    4.293048    5.200244
 O     :    3.095096    3.582632    3.540336    2.066732    6.103746    4.479550
 H     :    3.527749    2.918928    3.301392    4.334473    0.979799    5.011745
 H     :    4.422120    3.548403    4.492831    5.135652    0.988820    5.487732
 H     :    3.121728    3.174390    3.798021    3.807401    4.552280    1.016203
 H     :    1.598139    2.024038    2.403513    2.136202    4.256873    1.086765
 H     :    3.206303    3.639546    2.224572    3.463996    4.448435    5.588135
 H     :    3.977743    4.299972    2.991531    4.555091    4.397121    5.958864
 H     :    3.254844    3.904593    3.755001    2.374287    6.550856    4.074757
 H     :    3.504696    4.093891    3.684868    2.522246    6.499161    5.159885

            O           O           H           H           H           H     
            ------      ------      ------      ------      ------      ------
 O     :    0.000000
 O     :    5.216602    0.000000
 H     :    3.613599    6.308351    0.000000
 H     :    5.150479    7.004616    1.570627    0.000000
 H     :    5.415683    5.325206    4.657667    4.975838    0.000000
 H     :    4.320497    3.688292    4.334512    4.968581    1.726124    0.000000
 H     :    1.011840    4.769612    3.907674    5.362266    5.901359    4.603964
 H     :    0.979034    6.137377    3.589272    5.152045    6.053279    5.121868
 H     :    5.453232    1.014603    6.703991    7.435995    5.016292    3.452996
 H     :    5.016193    0.983507    6.598086    7.443789    6.009125    4.310336

            H           H           H           H     
            ------      ------      ------      ------
 H     :    0.000000
 H     :    1.567418    0.000000
 H     :    5.155996    6.416619    0.000000
 H     :    4.459476    5.919569    1.558446    0.000000


  Max    interatomic separation is    7.4438 Angstrom (   14.0667 Bohr)
  between atoms   16 and   10, "H     " and "H     ".

  Min HX interatomic separation is    0.9790 Angstrom (    1.8501 Bohr)

  Min YX interatomic separation is    2.6797 Angstrom (    5.0638 Bohr)


  Bond distances (Angstrom):
  --------------------------

                  atom 1     atom 2       distance
                  ------     ------       --------
  bond distance:  H          N            1.053851
  bond distance:  H          N            1.021184
  bond distance:  H          N            1.049755
  bond distance:  H          O            0.979799
  bond distance:  H          O            0.988820
  bond distance:  H          O            1.016203
  bond distance:  H          O            1.086765
  bond distance:  H          O            1.011840
  bond distance:  H          O            0.979034
  bond distance:  H          O            1.014603
  bond distance:  H          O            0.983507


  Bond angles (degrees):
  ----------------------

                  atom 1     atom 2     atom 3         angle
                  ------     ------     ------         -----
  bond angle:     H          N          H            110.472
  bond angle:     H          N          H            101.758
  bond angle:     H          N          H            105.905
  bond angle:     H          O          H            105.846
  bond angle:     H          O          H            110.286
  bond angle:     H          O          H            103.856
  bond angle:     H          O          H            102.503




 Principal moments of inertia (u*A**2) and principal axes
 --------------------------------------------------------

   IA     334.582251          0.774585    0.228616    0.589705
   IB     488.752164         -0.627868    0.165688    0.760479
   IC     602.108374         -0.076150    0.959313   -0.271881


 Rotational constants
 --------------------

               A                   B                   C

           1510.4776           1034.0190            839.3489 MHz
            0.050384            0.034491            0.027998 cm-1


@  Nuclear repulsion energy :  178.797669083028 Hartree


                     .---------------------------------------.
                     | Starting in Integral Section (HERMIT) |
                     `---------------------------------------'



 ***************************************************************************************
 ****************** Output from **INTEGRALS input processing (HERMIT) ******************
 ***************************************************************************************



    *************************************************************************
    ****************** Output from HERMIT input processing ******************
    *************************************************************************


 Default print level:        1

 * Nuclear model: Point charge

 Calculation of one- and two-electron Hamiltonian integrals.

 The following one-electron property integrals are calculated as requested:
          - overlap integrals
          - dipole length integrals

 Center of mass  (bohr):      0.389811172531      0.125543523369      0.467306019121
 Operator center (bohr):      0.000000000000      0.000000000000      0.000000000000
 Gauge origin    (bohr):      0.000000000000      0.000000000000      0.000000000000
 Dipole origin   (bohr):      0.000000000000      0.000000000000      0.000000000000
 
  *********************************** 
  QMMM electrostatic potential: 
  Multipole order                                    0
  Isotropic polarization  
  *********************************** 
 
  ---------------- 
  QMMM information 
  ---------------- 
 
  MM coordinates in au 
  -------------------- 
     1     11.348503      0.554928      8.144733
     2     12.943545      1.018092      8.915947
     3     10.248229      2.122896      8.332018
     4     -8.491979     11.741664      2.791252
     5     -7.206408     10.423389      2.909420
     6     -7.720958     13.045210      3.999541
     7     -1.820488     -4.774499      5.183154
     8      0.038001     -5.409604      4.949049
     9     -2.823848     -6.196059      4.515701
    10     -7.514734      4.207802      6.804339
    11     -7.000201      5.421868      8.036994
    12     -6.007392      3.476348      6.113668
    13     -2.894580     -8.142671     -2.205286
    14     -3.678150     -6.542757     -1.742182
    15     -2.013875     -7.930907     -3.845717
    16      4.123500     -4.030304     -4.682998
    17      2.899293     -4.590838     -5.899799
    18      4.511598     -5.560200     -3.715871
    19     -7.542783     -0.117331    -11.716929
    20     -9.066292      0.948926    -11.100537
    21     -6.131611      1.134998    -11.936510
    22      5.776122     11.682255      9.334425
    23      3.871488     11.682648      9.666448
    24      6.072546     11.025634      7.603451
    25      5.853515     -6.497158      9.789284
    26      7.393705     -5.433635     10.206628
    27      6.423497     -8.276415      9.584649
    28     -6.321147     -2.178008     -6.802375
    29     -6.701887     -1.714044     -8.569197
    30     -5.924131     -3.912410     -6.868427
    31     -4.233427     -7.151338     -8.407834
    32     -2.446351     -7.452863     -8.123230
    33     -5.024665     -8.844769     -7.923017
    34      4.534963     -9.081151     -2.982712
    35      5.772928    -10.248820     -3.725206
    36      2.994088     -9.605395     -3.801791
    37     -2.862739      1.763895     11.399648
    38     -1.354357      2.790810     10.967424
    39     -2.113451      0.633364     12.605205
    40    -11.442590     -2.799875     -4.828736
    41     -9.876962     -2.651972     -5.947956
    42    -10.921438     -1.836644     -3.466876
    43     -9.948473      4.635990     -4.676564
    44    -10.535922      6.055773     -3.573926
    45     -8.412473      5.225947     -5.488651
    46     11.503135      4.286358      3.099436
    47     10.968806      6.035910      3.561178
    48     12.782982      3.945166      4.273589
    49      2.121305     -6.190839     -9.630723
    50      3.625390     -6.530075    -10.697025
    51      0.777811     -5.688450    -10.818673
    52     -3.204055     10.210124      7.536188
    53     -3.265868      8.809367      6.371690
    54     -4.223778      9.677543      9.040399
    55    -10.272861      0.514718     -1.501985
    56    -10.502760      2.099100     -2.459977
    57    -11.308512      0.665204      0.060371
    58     -5.145809     -9.194056      5.568581
    59     -5.222455     -7.735526      6.764450
    60     -4.185437    -10.624558      6.312972
    61      5.905931      9.759833      4.572211
    62      5.366422      8.383681      3.480532
    63      6.037136     11.112134      3.265307
    64     11.196348      9.391247      5.379835
    65     12.366901     10.372132      4.423250
    66      9.392988      9.903148      5.340156
    67      1.589668      4.817358      9.115716
    68      1.811089      6.690881      9.536841
    69      2.854628      3.877654     10.190781
    70    -10.219537     10.374332    -11.306377
    71    -10.609559     12.074277    -12.048448
    72    -12.038205      9.896647    -11.029549
    73      8.010817      4.363039     -0.677357
    74      8.951784      6.019180     -0.823471
    75      8.958022      3.324251      0.509667
    76      3.242133     -5.638159      4.544451
    77      3.609332     -5.913399      6.383637
    78      4.140528     -4.091618      4.021158
    79     -1.724882      9.951740     -8.501489
    80     -3.461035     10.324985     -8.218496
    81     -1.315556      8.282728     -7.860365
    82      0.852652     -0.184150     -9.291961
    83      1.330329     -1.824151     -9.957405
    84      0.901063     -0.279379     -7.340875
    85    -10.929734     -8.305936     -4.874178
    86     -9.510774     -8.910922     -3.803590
    87    -11.234554     -6.594808     -4.371411
    88     10.177094      5.526455      8.880292
    89      9.542614      6.862304     10.129510
    90     11.254761      6.500267      7.701628
    91      4.851811      2.093488    -11.654396
    92      5.839781      3.126121    -10.532175
    93      3.796208      1.084863    -10.410401
    94      0.311346     -9.453567     -6.244715
    95      1.068060     -8.677080     -7.756235
    96     -0.429246    -11.062502     -6.800799
    97    -11.516055      2.501223     -9.669224
    98    -13.129554      1.568960     -9.449729
    99    -10.921702      2.915020     -8.032838
   100      8.181856     -1.804978     -7.587496
   101      6.826133     -2.601705     -6.566229
   102      9.746707     -1.886916     -6.579847
   103      8.301654      9.034350    -10.847419
   104      7.299462     10.024511    -12.171144
   105      7.046224      8.416477     -9.594092
   106      0.033681    -11.249258      1.740748
   107      1.420586    -10.262778      2.398875
   108     -1.097073     -9.877302      1.075027
   109     -1.931939     -4.701055     11.111185
   110     -1.916197     -4.710688      9.273789
   111     -3.522565     -5.348877     11.744952
   112      9.556698     11.587171     -4.221425
   113     10.395132     13.226639     -4.619073
   114      9.432033     10.728257     -5.874155
   115      0.926671     10.610007     10.579445
   116     -0.204540     10.556828     12.066892
   117     -0.283706     10.590755      9.143223
   118     -0.864092      5.796130     -5.609214
   119     -0.199912      4.060778     -5.295855
   120      0.118255      6.926793     -4.414780
   121     -6.590407     11.602973     -7.627398
   122     -7.987113     11.016946     -8.608744
   123     -7.282012     11.430842     -5.895292
   124      4.831845      7.721661     -6.926130
   125      5.010803      6.121645     -5.892075
   126      3.908957      8.728074     -5.748522
   127     -5.615153      4.989306     -7.470902
   128     -4.144468      5.436009     -6.250464
   129     -5.904842      3.231632     -7.049347
   130      1.499277      9.031780     -2.514294
   131      0.518887     10.288752     -1.546008
   132      2.394196      7.970731     -1.188607
   133      5.969830      2.770830      6.047211
   134      5.642996      2.357084      7.803590
   135      7.326417      3.983172      6.304606
   136     11.272337      8.515372     -0.978820
   137     11.427763      9.279449      0.603943
   138     10.441147      9.835448     -2.185130
   139      3.750144      6.534633      1.524085
   140      4.929540      5.419735      0.496616
   141      2.659497      5.324617      2.381314
   142      9.734775     -3.513110     11.166549
   143      8.996096     -2.730246     12.725412
   144     10.482337     -2.239528     10.066063
   145      6.345757      2.682561     -5.128533
   146      7.013063      3.079052     -3.443300
   147      7.248235      1.232200     -5.904748
   148     -6.223093      7.375250     11.054749
   149     -5.498874      6.300211     12.369529
   150     -7.728530      8.032642     11.838010
   151     -7.124498    -11.115855     -2.397771
   152     -5.363449    -10.446272     -2.322385
   153     -7.694215    -11.411013     -0.555052
   154     -7.205443     -4.561874      8.774699
   155     -7.331992     -3.001647      9.767229
   156     -8.533419     -5.659826      9.315611
   157     11.325696     -0.941305      3.132340
   158     13.000006     -1.729143      3.309872
   159     10.973957     -0.237397      4.776767
   160      6.995131     -8.876507      2.839928
   161      5.732582     -7.580198      3.504302
   162      7.089480     -8.410973      1.077305
   163     -3.295144      7.773993      3.249182
   164     -2.452558      6.133860      3.070652
   165     -2.317056      9.179732      2.465199
   166     -3.062093     -0.006760      6.584248
   167     -2.562108     -1.782339      6.071433
   168     -3.086701      0.215053      8.455891
   169     11.386411     -6.024812      5.568875
   170     10.859721     -4.491433      4.633013
   171     10.321794     -7.427429      4.907934
   172     -7.396518     -3.865454      3.678412
   173     -7.343529     -3.999783      5.477040
   174     -8.609054     -5.217572      3.305600
   175    -10.251810     -7.088162    -11.100818
   176    -10.181512     -7.529710     -9.366660
   177    -11.527259     -5.811664    -11.270652
 
  MM charges 
  ---------- 
     1     -0.674440
     2      0.337220
     3      0.337220
     4     -0.674440
     5      0.337220
     6      0.337220
     7     -0.674440
     8      0.337220
     9      0.337220
    10     -0.674440
    11      0.337220
    12      0.337220
    13     -0.674440
    14      0.337220
    15      0.337220
    16     -0.674440
    17      0.337220
    18      0.337220
    19     -0.674440
    20      0.337220
    21      0.337220
    22     -0.674440
    23      0.337220
    24      0.337220
    25     -0.674440
    26      0.337220
    27      0.337220
    28     -0.674440
    29      0.337220
    30      0.337220
    31     -0.674440
    32      0.337220
    33      0.337220
    34     -0.674440
    35      0.337220
    36      0.337220
    37     -0.674440
    38      0.337220
    39      0.337220
    40     -0.674440
    41      0.337220
    42      0.337220
    43     -0.674440
    44      0.337220
    45      0.337220
    46     -0.674440
    47      0.337220
    48      0.337220
    49     -0.674440
    50      0.337220
    51      0.337220
    52     -0.674440
    53      0.337220
    54      0.337220
    55     -0.674440
    56      0.337220
    57      0.337220
    58     -0.674440
    59      0.337220
    60      0.337220
    61     -0.674440
    62      0.337220
    63      0.337220
    64     -0.674440
    65      0.337220
    66      0.337220
    67     -0.674440
    68      0.337220
    69      0.337220
    70     -0.674440
    71      0.337220
    72      0.337220
    73     -0.674440
    74      0.337220
    75      0.337220
    76     -0.674440
    77      0.337220
    78      0.337220
    79     -0.674440
    80      0.337220
    81      0.337220
    82     -0.674440
    83      0.337220
    84      0.337220
    85     -0.674440
    86      0.337220
    87      0.337220
    88     -0.674440
    89      0.337220
    90      0.337220
    91     -0.674440
    92      0.337220
    93      0.337220
    94     -0.674440
    95      0.337220
    96      0.337220
    97     -0.674440
    98      0.337220
    99      0.337220
   100     -0.674440
   101      0.337220
   102      0.337220
   103     -0.674440
   104      0.337220
   105      0.337220
   106     -0.674440
   107      0.337220
   108      0.337220
   109     -0.674440
   110      0.337220
   111      0.337220
   112     -0.674440
   113      0.337220
   114      0.337220
   115     -0.674440
   116      0.337220
   117      0.337220
   118     -0.674440
   119      0.337220
   120      0.337220
   121     -0.674440
   122      0.337220
   123      0.337220
   124     -0.674440
   125      0.337220
   126      0.337220
   127     -0.674440
   128      0.337220
   129      0.337220
   130     -0.674440
   131      0.337220
   132      0.337220
   133     -0.674440
   134      0.337220
   135      0.337220
   136     -0.674440
   137      0.337220
   138      0.337220
   139     -0.674440
   140      0.337220
   141      0.337220
   142     -0.674440
   143      0.337220
   144      0.337220
   145     -0.674440
   146      0.337220
   147      0.337220
   148     -0.674440
   149      0.337220
   150      0.337220
   151     -0.674440
   152      0.337220
   153      0.337220
   154     -0.674440
   155      0.337220
   156      0.337220
   157     -0.674440
   158      0.337220
   159      0.337220
   160     -0.674440
   161      0.337220
   162      0.337220
   163     -0.674440
   164      0.337220
   165      0.337220
   166     -0.674440
   167      0.337220
   168      0.337220
   169     -0.674440
   170      0.337220
   171      0.337220
   172     -0.674440
   173      0.337220
   174      0.337220
   175     -0.674440
   176      0.337220
   177      0.337220
 
  MM isotropic polarizabilities in au 
  ----------------------------------- 
     1      5.739350
     2      2.308390
     3      2.308390
     4      5.739350
     5      2.308390
     6      2.308390
     7      5.739350
     8      2.308390
     9      2.308390
    10      5.739350
    11      2.308390
    12      2.308390
    13      5.739350
    14      2.308390
    15      2.308390
    16      5.739350
    17      2.308390
    18      2.308390
    19      5.739350
    20      2.308390
    21      2.308390
    22      5.739350
    23      2.308390
    24      2.308390
    25      5.739350
    26      2.308390
    27      2.308390
    28      5.739350
    29      2.308390
    30      2.308390
    31      5.739350
    32      2.308390
    33      2.308390
    34      5.739350
    35      2.308390
    36      2.308390
    37      5.739350
    38      2.308390
    39      2.308390
    40      5.739350
    41      2.308390
    42      2.308390
    43      5.739350
    44      2.308390
    45      2.308390
    46      5.739350
    47      2.308390
    48      2.308390
    49      5.739350
    50      2.308390
    51      2.308390
    52      5.739350
    53      2.308390
    54      2.308390
    55      5.739350
    56      2.308390
    57      2.308390
    58      5.739350
    59      2.308390
    60      2.308390
    61      5.739350
    62      2.308390
    63      2.308390
    64      5.739350
    65      2.308390
    66      2.308390
    67      5.739350
    68      2.308390
    69      2.308390
    70      5.739350
    71      2.308390
    72      2.308390
    73      5.739350
    74      2.308390
    75      2.308390
    76      5.739350
    77      2.308390
    78      2.308390
    79      5.739350
    80      2.308390
    81      2.308390
    82      5.739350
    83      2.308390
    84      2.308390
    85      5.739350
    86      2.308390
    87      2.308390
    88      5.739350
    89      2.308390
    90      2.308390
    91      5.739350
    92      2.308390
    93      2.308390
    94      5.739350
    95      2.308390
    96      2.308390
    97      5.739350
    98      2.308390
    99      2.308390
   100      5.739350
   101      2.308390
   102      2.308390
   103      5.739350
   104      2.308390
   105      2.308390
   106      5.739350
   107      2.308390
   108      2.308390
   109      5.739350
   110      2.308390
   111      2.308390
   112      5.739350
   113      2.308390
   114      2.308390
   115      5.739350
   116      2.308390
   117      2.308390
   118      5.739350
   119      2.308390
   120      2.308390
   121      5.739350
   122      2.308390
   123      2.308390
   124      5.739350
   125      2.308390
   126      2.308390
   127      5.739350
   128      2.308390
   129      2.308390
   130      5.739350
   131      2.308390
   132      2.308390
   133      5.739350
   134      2.308390
   135      2.308390
   136      5.739350
   137      2.308390
   138      2.308390
   139      5.739350
   140      2.308390
   141      2.308390
   142      5.739350
   143      2.308390
   144      2.308390
   145      5.739350
   146      2.308390
   147      2.308390
   148      5.739350
   149      2.308390
   150      2.308390
   151      5.739350
   152      2.308390
   153      2.308390
   154      5.739350
   155      2.308390
   156      2.308390
   157      5.739350
   158      2.308390
   159      2.308390
   160      5.739350
   161      2.308390
   162      2.308390
   163      5.739350
   164      2.308390
   165      2.308390
   166      5.739350
   167      2.308390
   168      2.308390
   169      5.739350
   170      2.308390
   171      2.308390
   172      5.739350
   173      2.308390
   174      2.308390
   175      5.739350
   176      2.308390
   177      2.308390


     ************************************************************************
     ************************** Output from HERINT **************************
     ************************************************************************



                      Nuclear contribution to dipole moments
                      --------------------------------------

                 au               Debye          C m (/(10**-30)

      x     19.67682997        50.01350992       166.82711184
      y      6.50794654        16.54154910        55.17666858
      z     25.90205459        65.83645161       219.60676411


  Time used in HUCKEL     is       0.33 seconds
  Time used in OVERLAP    is       0.19 seconds
  Time used in POPOVLP    is       0.20 seconds
  Time used in DIPLEN     is       0.17 seconds
  Time used in QUADRUP    is       0.41 seconds
  Time used in KINENE     is       0.29 seconds

 Threshold for neglecting two-electron integrals:  1.00D-12
 HERMIT - Number of two-electron integrals written:    27018810 ( 36.0% )
 HERMIT - Megabytes written:                            309.382

  Time used in TWOINT     is      14.36 seconds
  Total CPU  time used in HERMIT:  16.01 seconds
  Total wall time used in HERMIT:   5.54 seconds


                        .----------------------------------.
                        | End of Integral Section (HERMIT) |
                        `----------------------------------'



                   .--------------------------------------------.
                   | Starting in Wave Function Section (SIRIUS) |
                   `--------------------------------------------'

NCCEXCI for singlet:   15
 CCSD_INPUT: core-val requested
 Requested number of core orbs per sym
                     1
 Indices of requested core orbs
                     1

 *** Output from Huckel module :

     Using EWMO model:          T
     Using EHT  model:          F
     Number of Huckel orbitals each symmetry:   36

 EWMO - Energy Weighted Maximum Overlap - is a Huckel type method,
        which normally is better than Extended Huckel Theory.
 Reference: Linderberg and Ohrn, Propagators in Quantum Chemistry (Wiley, 1973)

 Huckel EWMO eigenvalues for symmetry :  1
          -20.684567     -20.684422     -20.684386     -20.683742     -15.673463
           -1.710388      -1.600606      -1.588156      -1.579604      -1.431818
           -0.830763      -0.790814      -0.779293      -0.772345      -0.734639
           -0.730947      -0.693308      -0.691922      -0.677841      -0.661412
           -0.616543      -0.615639      -0.606077      -0.577038      -0.511729
           -0.258045      -0.244571      -0.239067      -0.234376      -0.186762
           -0.181497      -0.180164      -0.176294      -0.165620      -0.155788
           -0.142154

 **********************************************************************
 *SIRIUS* a direct, restricted step, second order MCSCF program       *
 **********************************************************************

 
     Date and time (Linux)  : Mon Dec 24 23:38:10 2018
     Host name              : n-62-30-18                              

 Title lines from ".mol" input file:
                                                                             
                                                                             

 Print level on unit LUPRI =   2 is   0
 Print level on unit LUW4  =   2 is  11

@    (Integral direct) CC calculation.

@    This is a combination run starting with
@              a restricted, closed shell Hartree-Fock calculation


 Initial molecular orbitals are obtained according to
 ".MOSTART EWMO  " input option

@    QM part is embedded in an environment :

@         Model: QMMM

     Wave function specification
     ============================

     For the specification of the Coupled Cluster: see later.

@    Wave function type        --- CC ---
@    Number of closed shell electrons          50
@    Number of electrons in active shells       0
@    Total charge of the molecule               0

@    Spin multiplicity and 2 M_S                1         0
@    Total number of symmetries                 1 (point group: C1 )
@    Reference state symmetry                   1 (irrep name : A  )

     Orbital specifications
     ======================
@    Abelian symmetry species          All |    1
@                                          |  A  
                                       --- |  ---
@    Occupied SCF orbitals              25 |   25
@    Secondary orbitals                131 |  131
@    Total number of orbitals          156 |  156
@    Number of basis functions         156 |  156

     Optimization information
     ========================
@    Number of configurations                 1
@    Number of orbital rotations           3275
     ------------------------------------------
@    Total number of variables             3276

     Maximum number of Fock   iterations      0
     Maximum number of DIIS   iterations     60
     Maximum number of QC-SCF iterations     60
     Threshold for SCF convergence     1.00D-07


 Changes of defaults for CC:
 ---------------------------


 -Implicit frozen core calculation
 -Excitation energies calculated
 -One-photon absorption strengths will be calculated
 -Oscillator strengths calculated
  
* Read MO coefficients from SIRIUS.RST with label "NEWORB  " and header info: 24Dec18  REORTHO 


 ***********************************************
 ***** DIIS acceleration of SCF iterations *****
 ***********************************************

 C1-DIIS algorithm; max error vectors =    8
 -----------------------------------------------------------------------------

 *** DIIS iteration number    1
 RDSUPM called. NFMAT, ISYMDM(1:NFMAT)                     1
                     1

Calculating AOSUPINT
     (Precalculated two-electron integrals are transformed to P-supermatrix elements.
      Threshold for discarding integrals :  1.00D-12 )
  CPU  time used in FORMSUP    is   6.02 seconds
  WALL time used in FORMSUP    is   6.89 seconds

 ITDIIS, energy, error norm, change in energy, scr.thr., difden:
@ DIIS iter.   1    -359.906514078        3.77731D+00   -3.60D+02  -20    F

 (DIIS_RED) Control Parameters C2DIIS =         F NEVC =    1


 (DIIS_RED) B matrix:

               Column   1
       1      14.26805504
    ==== End of matrix output ====

 DIIS C vector; C2DIIS = F, LAMBDA = -1.43D+01
    1.000000
* Read MO coefficients from SIRIUS.RST with label "NEWORB  " and header info: 24Dec18  DIIS   1
      Virial theorem: -V/T =      1.998022
@      MULPOP N      -0.30; H       0.16; H       0.16; H       0.16; O      -0.63; O      -0.91; O      -0.61; O      -0.62; H       0.33; H       0.32; 
@             H       0.32; H       0.32; H       0.33; H       0.31; H       0.33; H       0.33; 
   1  Level shift: doubly occupied orbital energies shifted by -2.00D-01

 DIIS Fock eigenvalues in symmetry 1
      -20.73914      -20.73505      -20.69926      -20.44420      -16.02251
       -1.55918       -1.55691       -1.52116       -1.45294       -1.38922
       -0.96767       -0.94524       -0.93562       -0.92781       -0.89448
       -0.85792       -0.81073       -0.80899       -0.77446       -0.76766
       -0.76224       -0.72885       -0.72223       -0.64555       -0.61886
        0.09974        0.15155        0.15585        0.19489        0.23320
        0.24767        0.25144        0.27509        0.28842        0.30884
        0.37868        0.39866        0.43621        0.49893        0.52793
        0.53839        0.55899        0.56722        0.58614        0.60193
        0.61820        0.63812        0.81445        0.85621        0.89242
        0.93103        0.94375        0.98516        1.01525        1.04358
        1.04741        1.06762        1.08348        1.10205        1.11775
        1.14188        1.19185        1.21247        1.25157        1.26715
        1.32203        1.36606        1.40897        1.44347        1.45455
        1.46621        1.47132        1.48523        1.49554        1.52580
        1.54492        1.64725        1.65302        1.66527        1.69904
        1.70626        1.76522        1.78630        1.83532        1.84801
        1.87745        1.88526        1.97486        2.02088        2.07802
        2.12942        2.16492        2.17389        2.18614        2.28975
        2.30660        2.31022        2.31725        2.42349        2.47794
        2.54591        2.56189        2.63292        2.67420        2.68220
        2.73396        2.74584        2.75824        2.77272        2.78208
        2.81090        2.86046        2.97660        3.06820        3.26829
        3.30647        3.40489        3.40514        3.45580        3.46441
        3.47166        3.48958        3.49096        3.59555        3.61294
        3.62231        3.64397        3.67677        3.93181        3.95836
        3.97872        4.03197        4.17435        4.20042        4.20356
        4.22064        4.55575        4.88565        5.03278        5.29120
        5.32450        5.42900        5.48762        5.70860        5.75406
        5.81527        5.83075        6.04794        6.05170        6.07658
        6.24506       36.71805       51.52886       51.53471       51.56614
       51.82770
 Time used in FCKEIG, thr_jaco:   4.59D-01  4.60D-02  1.65D-04
 CPU and wall times used in FCKEIG, THR_FCKEIG:   4.59D-01  4.60D-02  3.78D-02
 -----------------------------------------------------------------------------

 *** DIIS iteration number    2
 RDSUPM called. NFMAT, ISYMDM(1:NFMAT)                     1
                     1

 ITDIIS, energy, error norm, change in energy, scr.thr., difden:
@ DIIS iter.   2    -360.681579766        9.93753D-01   -7.75D-01  -20    F

 (DIIS_RED) Control Parameters C2DIIS =         F NEVC =    2


 (DIIS_RED) B matrix:

               Column   1     Column   2
       1      14.26805504
       2       0.67436041     0.98754502
    ==== End of matrix output ====

 DIIS C vector; C2DIIS = F, LAMBDA = -9.80D-01
    0.022520    0.977480
* Read MO coefficients from SIRIUS.RST with label "NEWORB  " and header info: 24Dec18  DIIS   2
      Virial theorem: -V/T =      2.005057
@      MULPOP N      -0.69; H       0.24; H       0.24; H       0.25; O      -0.58; O      -0.75; O      -0.62; O      -0.55; H       0.30; H       0.29; 
@             H       0.27; H       0.35; H       0.35; H       0.30; H       0.29; H       0.30; 
   2  Level shift: doubly occupied orbital energies shifted by -1.00D-01

 DIIS Fock eigenvalues in symmetry 1
      -20.73214      -20.68003      -20.67982      -20.66710      -15.53160
       -1.44581       -1.44248       -1.41705       -1.40247       -1.20204
       -0.81252       -0.80386       -0.77386       -0.77164       -0.72176
       -0.70490       -0.69325       -0.69204       -0.67314       -0.66995
       -0.63571       -0.63497       -0.62012       -0.59882       -0.51307
        0.14169        0.18425        0.18771        0.22880        0.25058
        0.26756        0.27741        0.29611        0.32487        0.37003
        0.39704        0.46503        0.49844        0.54513        0.55974
        0.57175        0.60206        0.60244        0.62236        0.63148
        0.64930        0.69344        0.91143        0.93209        0.94368
        0.95864        0.96580        0.98688        1.01976        1.06202
        1.07295        1.09154        1.10286        1.11890        1.15178
        1.15445        1.17875        1.28854        1.32331        1.34240
        1.35959        1.39784        1.46195        1.49840        1.50656
        1.51379        1.51659        1.52913        1.54574        1.54877
        1.58489        1.70605        1.71056        1.71957        1.74543
        1.76284        1.79780        1.83878        1.89652        1.91075
        1.93157        1.94556        2.04522        2.08841        2.19158
        2.21059        2.22224        2.23021        2.25621        2.30351
        2.35637        2.36999        2.37601        2.52204        2.54866
        2.60700        2.62518        2.71191        2.71633        2.75895
        2.80968        2.81970        2.83639        2.84196        2.87022
        2.95953        2.97487        3.11528        3.17834        3.38173
        3.42860        3.43012        3.44203        3.46818        3.49114
        3.49448        3.49979        3.50512        3.52061        3.57908
        3.64699        3.65408        3.66396        3.96031        3.97901
        3.98555        3.99717        4.12524        4.20303        4.22174
        4.23295        4.71273        5.12517        5.25212        5.28644
        5.29652        5.34288        5.42318        5.63013        5.71385
        5.76735        5.82771        6.05754        6.07168        6.07884
        6.09949       37.10193       51.44638       51.49004       51.49278
       51.50151
 Time used in FCKEIG, thr_jaco:   3.34D-01  3.30D-02  4.34D-05
 CPU and wall times used in FCKEIG, THR_FCKEIG:   3.34D-01  3.30D-02  9.94D-03
 -----------------------------------------------------------------------------

 *** DIIS iteration number    3
 RDSUPM called. NFMAT, ISYMDM(1:NFMAT)                     1
                     1

 ITDIIS, energy, error norm, change in energy, scr.thr., difden:
@ DIIS iter.   3    -360.744338526        3.88504D-01   -6.28D-02  -20    F

 (DIIS_RED) Control Parameters C2DIIS =         F NEVC =    3


 (DIIS_RED) B matrix:

               Column   1     Column   2     Column   3
       1      14.26805504
       2       0.67436041     0.98754502
       3       0.76054702     0.01257233     0.15093518
    ==== End of matrix output ====

 DIIS C vector; C2DIIS = F, LAMBDA = -1.04D-01
   -0.047776    0.126517    0.921259
* Read MO coefficients from SIRIUS.RST with label "NEWORB  " and header info: 24Dec18  DIIS   3
      Virial theorem: -V/T =      2.002407
@      MULPOP N      -0.61; H       0.21; H       0.21; H       0.23; O      -0.62; O      -0.86; O      -0.68; O      -0.60; H       0.32; H       0.31; 
@             H       0.34; H       0.40; H       0.38; H       0.33; H       0.31; H       0.33; 
   3  Level shift: doubly occupied orbital energies shifted by -5.00D-02

 DIIS Fock eigenvalues in symmetry 1
      -20.60486      -20.60219      -20.57524      -20.51341      -15.61135
       -1.38531       -1.38028       -1.34971       -1.29756       -1.18489
       -0.74989       -0.74132       -0.70515       -0.69784       -0.67184
       -0.66124       -0.63526       -0.63267       -0.60528       -0.57821
       -0.56613       -0.56502       -0.52807       -0.50761       -0.47390
        0.14564        0.18817        0.19247        0.23473        0.25504
        0.27181        0.28122        0.30014        0.32654        0.37122
        0.40354        0.46717        0.50032        0.55578        0.57024
        0.58043        0.60981        0.61332        0.63332        0.64315
        0.65655        0.69770        0.91419        0.92861        0.95459
        0.96920        0.98539        1.00894        1.03832        1.06935
        1.08250        1.09821        1.11369        1.13077        1.16398
        1.17791        1.19408        1.29199        1.32809        1.34960
        1.35984        1.40872        1.47274        1.50996        1.51759
        1.52632        1.52852        1.54282        1.55799        1.55985
        1.59540        1.71695        1.72036        1.72937        1.75643
        1.78227        1.80418        1.84799        1.90564        1.91913
        1.93911        1.95453        2.05337        2.09613        2.18683
        2.22018        2.23178        2.24010        2.25779        2.32982
        2.36938        2.38327        2.39150        2.52868        2.55910
        2.61757        2.63492        2.72166        2.72791        2.76676
        2.81819        2.82785        2.84499        2.85226        2.86903
        2.94776        2.95341        3.10515        3.17121        3.41832
        3.43833        3.44908        3.45265        3.46584        3.50915
        3.51697        3.51889        3.53113        3.55417        3.64070
        3.66653        3.67236        3.68926        3.97887        4.00325
        4.01867        4.03047        4.18470        4.22266        4.24818
        4.25307        4.67608        5.07387        5.21373        5.31711
        5.35935        5.38588        5.45137        5.71693        5.73739
        5.79028        5.85568        6.08862        6.09429        6.12058
        6.16910       36.97621       51.51661       51.51944       51.54302
       51.61388
 Time used in FCKEIG, thr_jaco:   2.54D-01  2.60D-02  1.70D-05
 CPU and wall times used in FCKEIG, THR_FCKEIG:   2.54D-01  2.60D-02  3.89D-03
 -----------------------------------------------------------------------------

 *** DIIS iteration number    4
 RDSUPM called. NFMAT, ISYMDM(1:NFMAT)                     1
                     1

 ITDIIS, energy, error norm, change in energy, scr.thr., difden:
@ DIIS iter.   4    -360.754387445        1.11677D-01   -1.00D-02  -20    F

 (DIIS_RED) Control Parameters C2DIIS =         F NEVC =    4


 (DIIS_RED) B matrix:

               Column   1     Column   2     Column   3     Column   4
       1      14.26805504
       2       0.67436041     0.98754502
       3       0.76054702     0.01257233     0.15093518
       4       0.01780634     0.09071000    -0.00528306     0.01247171
    ==== End of matrix output ====

 DIIS C vector; C2DIIS = F, LAMBDA = -4.14D-03
   -0.000682   -0.089642    0.073922    1.016402
* Read MO coefficients from SIRIUS.RST with label "NEWORB  " and header info: 24Dec18  DIIS   4
      Virial theorem: -V/T =      2.003423
@      MULPOP N      -0.69; H       0.23; H       0.23; H       0.24; O      -0.64; O      -0.84; O      -0.70; O      -0.61; H       0.33; H       0.32; 
@             H       0.34; H       0.41; H       0.39; H       0.33; H       0.31; H       0.34; 
   4  Level shift: doubly occupied orbital energies shifted by -2.50D-02

 DIIS Fock eigenvalues in symmetry 1
      -20.58365      -20.58246      -20.55903      -20.52775      -15.56122
       -1.36268       -1.35782       -1.32830       -1.28477       -1.15100
       -0.72667       -0.71790       -0.68234       -0.67323       -0.64602
       -0.62901       -0.60958       -0.60703       -0.58092       -0.55967
       -0.53930       -0.53811       -0.50211       -0.49126       -0.44318
        0.14571        0.18734        0.19217        0.23428        0.25499
        0.27131        0.28145        0.30013        0.32867        0.37482
        0.40481        0.47153        0.50422        0.55679        0.56983
        0.58016        0.60828        0.61373        0.63145        0.64125
        0.65638        0.70029        0.91888        0.93356        0.95734
        0.97114        0.98554        1.00831        1.03640        1.07167
        1.08299        1.09911        1.11357        1.13041        1.16451
        1.17348        1.19168        1.29349        1.33088        1.35040
        1.36522        1.40974        1.47304        1.50856        1.51583
        1.52520        1.52715        1.54160        1.55753        1.55874
        1.59475        1.71586        1.71970        1.72794        1.75646
        1.78126        1.80762        1.84912        1.90430        1.91749
        1.94049        1.95438        2.05666        2.09994        2.19297
        2.22010        2.23075        2.23911        2.25989        2.32349
        2.36687        2.38057        2.38891        2.53314        2.56119
        2.61563        2.63303        2.72270        2.72789        2.76866
        2.81714        2.82933        2.84515        2.85049        2.87379
        2.95550        2.96259        3.11251        3.17766        3.42508
        3.43849        3.44386        3.45196        3.46985        3.50971
        3.51662        3.52006        3.52959        3.54269        3.62982
        3.66587        3.67192        3.68748        3.97780        4.00237
        4.01599        4.02331        4.17462        4.22219        4.24628
        4.25254        4.68619        5.08796        5.22630        5.31579
        5.35790        5.36524        5.44791        5.70047        5.73434
        5.78799        5.85240        6.08404        6.09146        6.11839
        6.15042       37.00104       51.51228       51.51502       51.53453
       51.57535
 Time used in FCKEIG, thr_jaco:   2.89D-01  2.90D-02  4.88D-06
 CPU and wall times used in FCKEIG, THR_FCKEIG:   2.89D-01  2.90D-02  1.12D-03
 -----------------------------------------------------------------------------

 *** DIIS iteration number    5
 RDSUPM called. NFMAT, ISYMDM(1:NFMAT)                     1
                     1

 ITDIIS, energy, error norm, change in energy, scr.thr., difden:
@ DIIS iter.   5    -360.755608730        2.48908D-02   -1.22D-03  -20    F

 (DIIS_RED) Control Parameters C2DIIS =         F NEVC =    5


 (DIIS_RED) B matrix:

               Column   1     Column   2     Column   3     Column   4     Column   5
       1      14.26805504
       2       0.67436041     0.98754502
       3       0.76054702     0.01257233     0.15093518
       4       0.01780634     0.09071000    -0.00528306     0.01247171
       5       0.01386324     0.00703172     0.00511168     0.00118370     0.00061955
    ==== End of matrix output ====

 DIIS C vector; C2DIIS = F, LAMBDA = -3.62D-04
    0.001548    0.004027   -0.050482   -0.135894    1.180801
* Read MO coefficients from SIRIUS.RST with label "NEWORB  " and header info: 24Dec18  DIIS   5
      Virial theorem: -V/T =      2.003078
@      MULPOP N      -0.69; H       0.22; H       0.23; H       0.24; O      -0.65; O      -0.86; O      -0.71; O      -0.62; H       0.33; H       0.32; 
@             H       0.35; H       0.42; H       0.40; H       0.34; H       0.31; H       0.34; 

 DIIS Fock eigenvalues in symmetry 1
      -20.55859      -20.55664      -20.53220      -20.49649      -15.53015
       -1.33761       -1.33254       -1.30264       -1.25753       -1.12412
       -0.70202       -0.69312       -0.65709       -0.64714       -0.61995
       -0.60277       -0.58463       -0.58201       -0.55568       -0.53279
       -0.51340       -0.51189       -0.47565       -0.46329       -0.41608
        0.14561        0.18709        0.19208        0.23433        0.25503
        0.27120        0.28151        0.30006        0.32896        0.37542
        0.40524        0.47205        0.50478        0.55700        0.56978
        0.58000        0.60788        0.61403        0.63129        0.64130
        0.65638        0.70089        0.92025        0.93453        0.95823
        0.97181        0.98645        1.00940        1.03784        1.07273
        1.08338        1.09936        1.11357        1.13069        1.16474
        1.17427        1.19202        1.29405        1.33144        1.35061
        1.36619        1.41016        1.47333        1.50822        1.51536
        1.52523        1.52702        1.54191        1.55729        1.55893
        1.59489        1.71561        1.71963        1.72751        1.75661
        1.78196        1.80812        1.84936        1.90381        1.91688
        1.94066        1.95436        2.05731        2.10048        2.19394
        2.21996        2.23029        2.23884        2.26019        2.32377
        2.36636        2.38008        2.38875        2.53394        2.56165
        2.61501        2.63238        2.72262        2.72796        2.76880
        2.81654        2.82928        2.84485        2.84981        2.87439
        2.95658        2.96411        3.11405        3.17879        3.42707
        3.44017        3.44484        3.45234        3.47099        3.51021
        3.51655        3.52077        3.53017        3.54494        3.63201
        3.66597        3.67187        3.68799        3.97783        4.00229
        4.01674        4.02542        4.17696        4.22216        4.24686
        4.25271        4.68925        5.09090        5.22898        5.31600
        5.35874        5.36901        5.44910        5.70364        5.73453
        5.78843        5.85331        6.08474        6.09158        6.11817
        6.15359       37.00696       51.51275       51.51545       51.53632
       51.58150
 Time used in FCKEIG, thr_jaco:   2.81D-01  2.80D-02  1.09D-06
 CPU and wall times used in FCKEIG, THR_FCKEIG:   2.81D-01  2.80D-02  2.49D-04
 -----------------------------------------------------------------------------

 *** DIIS iteration number    6
 RDSUPM called. NFMAT, ISYMDM(1:NFMAT)                     1
                     1

 ITDIIS, energy, error norm, change in energy, scr.thr., difden:
@ DIIS iter.   6    -360.755702830        8.46070D-03   -9.41D-05  -20    F

 (DIIS_RED) Control Parameters C2DIIS =         F NEVC =    6


 (DIIS_RED) B matrix:

               Column   1     Column   2     Column   3     Column   4     Column   5     Column   6
       1      14.26805504
       2       0.67436041     0.98754502
       3       0.76054702     0.01257233     0.15093518
       4       0.01780634     0.09071000    -0.00528306     0.01247171
       5       0.01386324     0.00703172     0.00511168     0.00118370     0.00061955
       6      -0.00183696    -0.00046983     0.00064261     0.00024671     0.00006880     0.00007158
    ==== End of matrix output ====

 DIIS C vector; C2DIIS = F, LAMBDA = -3.79D-05
    0.000595    0.008238   -0.017239   -0.101048    0.187281    0.922172
* Read MO coefficients from SIRIUS.RST with label "NEWORB  " and header info: 24Dec18  DIIS   6
      Virial theorem: -V/T =      2.003209
@      MULPOP N      -0.68; H       0.22; H       0.23; H       0.24; O      -0.65; O      -0.86; O      -0.72; O      -0.62; H       0.34; H       0.32; 
@             H       0.36; H       0.42; H       0.40; H       0.34; H       0.31; H       0.34; 

 DIIS Fock eigenvalues in symmetry 1
      -20.55832      -20.55689      -20.53293      -20.49858      -15.53396
       -1.33743       -1.33258       -1.30282       -1.25806       -1.12528
       -0.70203       -0.69335       -0.65737       -0.64788       -0.62075
       -0.60356       -0.58481       -0.58235       -0.55610       -0.53343
       -0.51309       -0.51176       -0.47577       -0.46362       -0.41708
        0.14553        0.18702        0.19195        0.23419        0.25494
        0.27112        0.28139        0.29995        0.32878        0.37517
        0.40507        0.47170        0.50445        0.55678        0.56967
        0.57989        0.60779        0.61379        0.63112        0.64109
        0.65616        0.70056        0.91969        0.93405        0.95792
        0.97193        0.98627        1.00919        1.03758        1.07230
        1.08326        1.09910        1.11350        1.13044        1.16453
        1.17389        1.19185        1.29369        1.33113        1.35060
        1.36566        1.40996        1.47302        1.50805        1.51522
        1.52499        1.52686        1.54165        1.55705        1.55859
        1.59458        1.71537        1.71936        1.72737        1.75632
        1.78166        1.80778        1.84907        1.90364        1.91661
        1.94034        1.95406        2.05695        2.10016        2.19331
        2.21962        2.23007        2.23854        2.25971        2.32334
        2.36622        2.37988        2.38848        2.53347        2.56127
        2.61487        2.63211        2.72234        2.72766        2.76850
        2.81631        2.82899        2.84456        2.84956        2.87381
        2.95577        2.96304        3.11304        3.17815        3.42606
        3.43948        3.44445        3.45225        3.47025        3.50988
        3.51662        3.52029        3.52983        3.54428        3.63139
        3.66585        3.67197        3.68772        3.97772        4.00233
        4.01639        4.02465        4.17622        4.22227        4.24658
        4.25258        4.68740        5.08901        5.22726        5.31623
        5.35851        5.36795        5.44868        5.70263        5.73459
        5.78821        5.85290        6.08431        6.09138        6.11827
        6.15249       37.00324       51.51275       51.51544       51.53560
       51.57944
 Time used in FCKEIG, thr_jaco:   2.53D-01  2.50D-02  3.70D-07
 CPU and wall times used in FCKEIG, THR_FCKEIG:   2.53D-01  2.50D-02  8.46D-05
 -----------------------------------------------------------------------------

 *** DIIS iteration number    7
 RDSUPM called. NFMAT, ISYMDM(1:NFMAT)                     1
                     1

 ITDIIS, energy, error norm, change in energy, scr.thr., difden:
@ DIIS iter.   7    -360.755710101        2.48159D-03   -7.27D-06  -20    F

 (DIIS_RED) Control Parameters C2DIIS =         F NEVC =    7


 (DIIS_RED) B matrix:

               Column   1     Column   2     Column   3     Column   4     Column   5     Column   6
       1      14.26805504
       2       0.67436041     0.98754502
       3       0.76054702     0.01257233     0.15093518
       4       0.01780634     0.09071000    -0.00528306     0.01247171
       5       0.01386324     0.00703172     0.00511168     0.00118370     0.00061955
       6      -0.00183696    -0.00046983     0.00064261     0.00024671     0.00006880     0.00007158
       7       0.00065030    -0.00005336     0.00009291     0.00000079     0.00003853    -0.00000007

               Column   7
       7       0.00000616
    ==== End of matrix output ====

 DIIS C vector; C2DIIS = F, LAMBDA = -1.42D-06
   -0.000242   -0.001245    0.006918    0.027275   -0.157379    0.001708    1.122964
* Read MO coefficients from SIRIUS.RST with label "NEWORB  " and header info: 24Dec18  DIIS   7
      Virial theorem: -V/T =      2.003180
@      MULPOP N      -0.68; H       0.22; H       0.23; H       0.24; O      -0.65; O      -0.87; O      -0.72; O      -0.62; H       0.34; H       0.32; 
@             H       0.36; H       0.42; H       0.40; H       0.34; H       0.32; H       0.35; 

 DIIS Fock eigenvalues in symmetry 1
      -20.55844      -20.55693      -20.53283      -20.49794      -15.53327
       -1.33742       -1.33255       -1.30276       -1.25774       -1.12503
       -0.70205       -0.69337       -0.65734       -0.64769       -0.62061
       -0.60344       -0.58487       -0.58240       -0.55614       -0.53322
       -0.51305       -0.51168       -0.47566       -0.46327       -0.41681
        0.14555        0.18702        0.19197        0.23423        0.25496
        0.27114        0.28142        0.29996        0.32882        0.37523
        0.40516        0.47180        0.50455        0.55686        0.56971
        0.57990        0.60779        0.61388        0.63113        0.64114
        0.65618        0.70067        0.91984        0.93416        0.95802
        0.97196        0.98636        1.00931        1.03776        1.07242
        1.08330        1.09915        1.11352        1.13050        1.16457
        1.17403        1.19188        1.29378        1.33121        1.35064
        1.36578        1.41002        1.47308        1.50804        1.51521
        1.52503        1.52689        1.54172        1.55705        1.55868
        1.59466        1.71538        1.71938        1.72736        1.75641
        1.78182        1.80785        1.84918        1.90365        1.91658
        1.94042        1.95410        2.05705        2.10027        2.19343
        2.21963        2.23007        2.23855        2.25978        2.32344
        2.36620        2.37985        2.38847        2.53359        2.56135
        2.61485        2.63208        2.72240        2.72771        2.76852
        2.81631        2.82900        2.84459        2.84953        2.87394
        2.95597        2.96326        3.11327        3.17829        3.42631
        3.43969        3.44458        3.45228        3.47040        3.50993
        3.51662        3.52037        3.52989        3.54459        3.63170
        3.66587        3.67197        3.68777        3.97772        4.00232
        4.01646        4.02493        4.17653        4.22227        4.24664
        4.25259        4.68780        5.08936        5.22758        5.31619
        5.35854        5.36837        5.44876        5.70300        5.73458
        5.78822        5.85296        6.08437        6.09137        6.11823
        6.15289       37.00391       51.51267       51.51536       51.53570
       51.58007
 Time used in FCKEIG, thr_jaco:   2.32D-01  2.40D-02  1.08D-07
 CPU and wall times used in FCKEIG, THR_FCKEIG:   2.33D-01  2.40D-02  2.48D-05
 -----------------------------------------------------------------------------

 *** DIIS iteration number    8
 RDSUPM called. NFMAT, ISYMDM(1:NFMAT)                     1
                     1

 ITDIIS, energy, error norm, change in energy, scr.thr., difden:
@ DIIS iter.   8    -360.755710756        3.79613D-04   -6.55D-07  -20    F

 (DIIS_RED) Control Parameters C2DIIS =         F NEVC =    8


 (DIIS_RED) B matrix:

               Column   1     Column   2     Column   3     Column   4     Column   5     Column   6
       1      14.26805504
       2       0.67436041     0.98754502
       3       0.76054702     0.01257233     0.15093518
       4       0.01780634     0.09071000    -0.00528306     0.01247171
       5       0.01386324     0.00703172     0.00511168     0.00118370     0.00061955
       6      -0.00183696    -0.00046983     0.00064261     0.00024671     0.00006880     0.00007158
       7       0.00065030    -0.00005336     0.00009291     0.00000079     0.00003853    -0.00000007
       8       0.00007570    -0.00000298    -0.00000031     0.00000284     0.00000109     0.00000150

               Column   7     Column   8
       7       0.00000616
       8       0.00000036     0.00000014
    ==== End of matrix output ====

 DIIS C vector; C2DIIS = F, LAMBDA = -7.83D-08
    0.000009   -0.000005   -0.000538   -0.001724    0.020101   -0.032329   -0.174933    1.189419
* Read MO coefficients from SIRIUS.RST with label "NEWORB  " and header info: 24Dec18  DIIS   8
      Virial theorem: -V/T =      2.003195
@      MULPOP N      -0.68; H       0.22; H       0.23; H       0.24; O      -0.65; O      -0.87; O      -0.72; O      -0.62; H       0.34; H       0.32; 
@             H       0.36; H       0.42; H       0.40; H       0.34; H       0.32; H       0.35; 

 DIIS Fock eigenvalues in symmetry 1
      -20.55838      -20.55690      -20.53283      -20.49797      -15.53330
       -1.33739       -1.33254       -1.30276       -1.25776       -1.12504
       -0.70202       -0.69335       -0.65734       -0.64770       -0.62062
       -0.60345       -0.58487       -0.58241       -0.55617       -0.53323
       -0.51302       -0.51167       -0.47565       -0.46327       -0.41683
        0.14555        0.18702        0.19197        0.23423        0.25496
        0.27114        0.28142        0.29996        0.32882        0.37522
        0.40515        0.47179        0.50454        0.55685        0.56971
        0.57990        0.60779        0.61388        0.63113        0.64114
        0.65618        0.70066        0.91983        0.93415        0.95801
        0.97197        0.98635        1.00931        1.03776        1.07241
        1.08330        1.09915        1.11354        1.13050        1.16457
        1.17403        1.19188        1.29378        1.33120        1.35065
        1.36577        1.41002        1.47307        1.50804        1.51521
        1.52502        1.52689        1.54171        1.55704        1.55867
        1.59465        1.71538        1.71938        1.72736        1.75640
        1.78181        1.80784        1.84917        1.90365        1.91658
        1.94041        1.95409        2.05704        2.10025        2.19341
        2.21962        2.23007        2.23854        2.25978        2.32344
        2.36620        2.37985        2.38846        2.53357        2.56134
        2.61486        2.63208        2.72240        2.72770        2.76851
        2.81631        2.82899        2.84458        2.84952        2.87392
        2.95595        2.96324        3.11325        3.17827        3.42629
        3.43968        3.44458        3.45229        3.47039        3.50993
[...]

 Principal values of diagonalized transition strength matrix:

             a.u.               
 1      -0.00000001
 2      -0.00000000
 3       0.00042717

 Principal axis of diagonalized transition strength matrix:


               Column   1     Column   2     Column   3
       1       0.78983421    -0.29408674    -0.53821456
       2      -0.05758265     0.83810878    -0.54245545
       3       0.61061130     0.45944169     0.64503269
    ==== End of matrix output ====


 CCSD   oscillator strength matrix for state nr. 13 of symmetry 1
 CCSD  excitation energy:15.13903042


               Column   1     Column   2     Column   3
       1       0.00124880     0.00125871    -0.00149677
       2       0.00125871     0.00126862    -0.00150851
       3      -0.00149677    -0.00150851     0.00179373
    ==== End of matrix output ====

 Principal values of diagonalized oscillator strength matrix:

             a.u.               
 1      -0.00000010
 2      -0.00000000
 3       0.00431125

 Principal axis of diagonalized oscillator strength matrix:


               Column   1     Column   2     Column   3
       1       0.78983421    -0.29408674    -0.53821456
       2      -0.05758265     0.83810878    -0.54245545
       3       0.61061130     0.45944169     0.64503269
    ==== End of matrix output ====


 CCSD  Transition strength matrix for state nr. 14 of symmetry 1
 CCSD  excitation energy:15.19831042

 Gauge: length

               Column   1     Column   2     Column   3
       1     5.440470D-05   3.116049D-05  -4.971191D-05
       2     3.116049D-05   1.784588D-05  -2.847044D-05
       3    -4.971191D-05  -2.847044D-05   4.542034D-05
    ==== End of matrix output ====

 Principal values of diagonalized transition strength matrix:

             a.u.               
 1      -0.00000000
 2      -0.00000000
 3       0.00011767

 Principal axis of diagonalized transition strength matrix:


               Column   1     Column   2     Column   3
       1       0.73324782    -0.00013357     0.67996148
       2      -0.36097881     0.84736973     0.38943399
       3       0.57623079     0.53100331    -0.62128380
    ==== End of matrix output ====


 CCSD   oscillator strength matrix for state nr. 14 of symmetry 1
 CCSD  excitation energy:15.19831042


               Column   1     Column   2     Column   3
       1     5.512396D-04   3.157245D-04  -5.036913D-04
       2     3.157245D-04   1.808182D-04  -2.884684D-04
       3    -5.036913D-04  -2.884684D-04   4.602083D-04
    ==== End of matrix output ====

 Principal values of diagonalized oscillator strength matrix:

             a.u.               
 1      -0.00000002
 2       0.00000000
 3       0.00119229

 Principal axis of diagonalized oscillator strength matrix:


               Column   1     Column   2     Column   3
       1       0.73324782    -0.00013357     0.67996148
       2      -0.36097881     0.84736973     0.38943399
       3       0.57623079     0.53100331    -0.62128380
    ==== End of matrix output ====


 CCSD  Transition strength matrix for state nr. 15 of symmetry 1
 CCSD  excitation energy:15.27432396

 Gauge: length

               Column   1     Column   2     Column   3
       1     7.664412D-06  -2.230118D-05  -5.640916D-05
       2    -2.230118D-05   6.484192D-05   1.641096D-04
       3    -5.640916D-05   1.641096D-04   4.151523D-04
    ==== End of matrix output ====

 Principal values of diagonalized transition strength matrix:

             a.u.               
 1      -0.00000003
 2       0.00000000
 3       0.00048769

 Principal axis of diagonalized transition strength matrix:


               Column   1     Column   2     Column   3
       1       0.13945440     0.98226041    -0.12536731
       2       0.92722866    -0.08509422     0.36469986
       3      -0.34756220     0.16710316     0.92264676
    ==== End of matrix output ====


 CCSD   oscillator strength matrix for state nr. 15 of symmetry 1
 CCSD  excitation energy:15.27432396


               Column   1     Column   2     Column   3
       1       0.00007805    -0.00022709    -0.00057441
       2      -0.00022709     0.00066028     0.00167111
       3      -0.00057441     0.00167111     0.00422745
    ==== End of matrix output ====

 Principal values of diagonalized oscillator strength matrix:

             a.u.               
 1      -0.00000027
 2      -0.00000000
 3       0.00496605

 Principal axis of diagonalized oscillator strength matrix:


               Column   1     Column   2     Column   3
       1       0.13945440     0.98226041    -0.12536731
       2       0.92722866    -0.08509422     0.36469986
       3      -0.34756220     0.16710316     0.92264676
    ==== End of matrix output ====

  Total time for    135 linear response residues:     133.50 seconds.
  

 *******************************************************************************
 *******************************************************************************
 *                                                                             *
 *                                                                             *
 *                   SUMMARY OF COUPLED CLUSTER CALCULATION                    *
 *                                                                             *
 *                                                                             *
 *******************************************************************************
 *******************************************************************************

                                                                                
                                                                                
            Total SCF   energy:                  -360.7557107777                
            Total MP2   energy:                  -361.8632203864                
            Total CCSD  energy:                  -361.9017291998                
                                                                                
                                                                                
            Total SCF   energy:                  -360.7557107777                
            Total RSTAR energy:                  -361.9017291998                
            Total CCSD  energy:                  -361.9018747638                
                                                                                
                                                                                
            Total SCF   energy:                  -360.7557107777                
            Total RSTAR energy:                  -361.9018747638                
            Total CCSD  energy:                  -361.9018763284                
                                                                                
                                                                                
            Total SCF   energy:                  -360.7557107777                
            Total RSTAR energy:                  -361.9018763284                
            Total CCSD  energy:                  -361.9018764474                
                                                                                
                                                                                
            Total SCF   energy:                  -360.7557107777                
            Total RSTAR energy:                  -361.9018764474                
            Total CCSD  energy:                  -361.9018764528                
                                                                                
                                                                                
            Total SCF   energy:                  -360.7557107777                
            Total RSTAR energy:                  -361.9018764528                
            Total CCSD  energy:                  -361.9018764531                
            CCSD Total  energy:                  -362.3071302484                
            CCSD E(QM/MM)     :                    -0.3998227303                
                                                                                
                                                                                
                                                                                
 +=============================================================================+
 |  sym. | Exci.  |        CCSD       Excitation energies            | ||T1||  |
 |(spin, |        +------------------------------------------------------------+
 | spat) |        |     Hartree    |       eV.      |     cm-1       |    %    |
 +=============================================================================+
 | ^1A   |    1   |    14.8278089  |     403.48521  |   3254327.866  |  88.23  |
 | ^1A   |    2   |    14.8941115  |     405.28939  |   3268879.591  |  88.65  |
 | ^1A   |    3   |    14.9199569  |     405.99268  |   3274552.009  |  88.60  |
 | ^1A   |    4   |    14.9718678  |     407.40525  |   3285945.142  |  87.90  |
 | ^1A   |    5   |    14.9763643  |     407.52760  |   3286932.007  |  88.21  |
 | ^1A   |    6   |    15.0091142  |     408.41877  |   3294119.784  |  87.74  |
 | ^1A   |    7   |    15.0160279  |     408.60690  |   3295637.149  |  87.99  |
 | ^1A   |    8   |    15.0478978  |     409.47413  |   3302631.797  |  87.84  |
 | ^1A   |    9   |    15.0579078  |     409.74652  |   3304828.737  |  87.79  |
 | ^1A   |   10   |    15.0861071  |     410.51386  |   3311017.760  |  87.78  |
 | ^1A   |   11   |    15.0869269  |     410.53617  |   3311197.696  |  87.74  |
 | ^1A   |   12   |    15.1084678  |     411.12232  |   3315925.372  |  87.87  |
 | ^1A   |   13   |    15.1390304  |     411.95397  |   3322633.089  |  87.88  |
 | ^1A   |   14   |    15.1983104  |     413.56706  |   3335643.545  |  87.60  |
 | ^1A   |   15   |    15.2743240  |     415.63550  |   3352326.590  |  87.77  |
 +=============================================================================+
                                                                                
                                                                                
     Total energies in Hartree:                                                 
             1 ^1A       -347.0794986014                                        
             2 ^1A       -347.0131960637                                        
             3 ^1A       -346.9873506239                                        
             4 ^1A       -346.9354396892                                        
             5 ^1A       -346.9309432026                                        
             6 ^1A       -346.8981932802                                        
             7 ^1A       -346.8912796576                                        
             8 ^1A       -346.8594096966                                        
             9 ^1A       -346.8493996984                                        
            10 ^1A       -346.8212004378                                        
            11 ^1A       -346.8203805854                                        
            12 ^1A       -346.7988397126                                        
            13 ^1A       -346.7682771030                                        
            14 ^1A       -346.7089971014                                        
            15 ^1A       -346.6329835547                                        
                                                                                
                                                                                
 +=============================================================================+
 |  sym. | Exci.  |        CCSD       Length   Gauge Oscillator Strength       |
 |(spin, |        +------------------------------------------------------------+
 | spat) |        | Dipole Strength(a.u.) | Oscillator strength  | Direction   |
 +=============================================================================+
 | ^1A   |    1   |        0.0009246      |      0.0091398       |  (Y,Z)      |
 | ^1A   |    2   |        0.0035573      |      0.0353216       |  (Y,Z)      |
 | ^1A   |    3   |        0.0031261      |      0.0310942       |  (Y,Z)      |
 | ^1A   |    4   |        0.0007080      |      0.0070671       |  (Y,Z)      |
 | ^1A   |    5   |        0.0016949      |      0.0169227       |  (Y,Z)      |
 | ^1A   |    6   |        0.0005043      |      0.0050458       |  (Y,Z)      |
 | ^1A   |    7   |        0.0008436      |      0.0084450       |  (Y,Z)      |
 | ^1A   |    8   |        0.0000421      |      0.0004228       |  (Y,Z)      |
 | ^1A   |    9   |        0.0001597      |      0.0016029       |  (Y,Z)      |
 | ^1A   |   10   |        0.0001014      |      0.0010202       |  (Y,Z)      |
 | ^1A   |   11   |        0.0002659      |      0.0026744       |  (Y,Z)      |
 | ^1A   |   12   |        0.0008342      |      0.0084020       |  (Y,Z)      |
 | ^1A   |   13   |        0.0004272      |      0.0043112       |  (Y,Z)      |
 | ^1A   |   14   |        0.0001177      |      0.0011923       |  (Y,Z)      |
 | ^1A   |   15   |        0.0004877      |      0.0049658       |  (Y,Z)      |
 +=============================================================================+

  1 a.u. =        27.21138 eV.  
  1 a.u. =    219474.62934 cm-1.
  

 *******************************************************************************
 *******************************************************************************
 *                                                                             *
 *                                                                             *
 *                      END OF COUPLED CLUSTER CALCULATION                     *
 *                                                                             *
 *                                                                             *
 *******************************************************************************
 *******************************************************************************


 CPU and wall time for CC :  596165.108  127192.310

 
     Date and time (Linux)  : Wed Dec 26 10:59:58 2018
     Host name              : n-62-30-18                              


                      .-------------------------------------.
                      | End of Coupled Cluster Section (CC) |
                      `-------------------------------------'

  Total CPU  time used in DALTON: 165 hours 46 minutes 31 seconds
  Total wall time used in DALTON:  35 hours 21 minutes 54 seconds

 
     Date and time (Linux)  : Wed Dec 26 10:59:58 2018
     Host name              : n-62-30-18                              
  

 +---------------------------------------------------------+ 
 | List of selected calculated molecular properties (a.u.) | 
 +---------------------------------------------------------+ 

  Properties are read from unit number                      4

 CCSD       properties :
 #  1 1 CCSD/MM  Ground state Energy =    -362.3071302484
 #  2 1 E_QM/MM  Ground state Energy =      -0.3998227303
 #  3 1 Sy: 1 Sp: 1 Exc:  1 E_tot:   -347.0794986014 w:     14.8278089167 E_grs:   -361.9073075181
 #  4 1 Exctot   Excited state Energy =    -347.0794986014
 #  5 1 Sy: 1 Sp: 1 Exc:  2 E_tot:   -347.0131960637 w:     14.8941114544 E_grs:   -361.9073075181
 #  6 1 Exctot   Excited state Energy =    -347.0131960637
 #  7 1 Sy: 1 Sp: 1 Exc:  3 E_tot:   -346.9873506239 w:     14.9199568942 E_grs:   -361.9073075181
 #  8 1 Exctot   Excited state Energy =    -346.9873506239
 #  9 1 Sy: 1 Sp: 1 Exc:  4 E_tot:   -346.9354396892 w:     14.9718678288 E_grs:   -361.9073075181
 # 10 1 Exctot   Excited state Energy =    -346.9354396892
 # 11 1 Sy: 1 Sp: 1 Exc:  5 E_tot:   -346.9309432026 w:     14.9763643154 E_grs:   -361.9073075181
 # 12 1 Exctot   Excited state Energy =    -346.9309432026
 # 13 1 Sy: 1 Sp: 1 Exc:  6 E_tot:   -346.8981932802 w:     15.0091142379 E_grs:   -361.9073075181
 # 14 1 Exctot   Excited state Energy =    -346.8981932802
 # 15 1 Sy: 1 Sp: 1 Exc:  7 E_tot:   -346.8912796576 w:     15.0160278605 E_grs:   -361.9073075181
 # 16 1 Exctot   Excited state Energy =    -346.8912796576
 # 17 1 Sy: 1 Sp: 1 Exc:  8 E_tot:   -346.8594096966 w:     15.0478978215 E_grs:   -361.9073075181
 # 18 1 Exctot   Excited state Energy =    -346.8594096966
 # 19 1 Sy: 1 Sp: 1 Exc:  9 E_tot:   -346.8493996984 w:     15.0579078197 E_grs:   -361.9073075181
 # 20 1 Exctot   Excited state Energy =    -346.8493996984
 # 21 1 Sy: 1 Sp: 1 Exc: 10 E_tot:   -346.8212004378 w:     15.0861070803 E_grs:   -361.9073075181
 # 22 1 Exctot   Excited state Energy =    -346.8212004378
 # 23 1 Sy: 1 Sp: 1 Exc: 11 E_tot:   -346.8203805854 w:     15.0869269327 E_grs:   -361.9073075181
 # 24 1 Exctot   Excited state Energy =    -346.8203805854
 # 25 1 Sy: 1 Sp: 1 Exc: 12 E_tot:   -346.7988397126 w:     15.1084678055 E_grs:   -361.9073075181
 # 26 1 Exctot   Excited state Energy =    -346.7988397126
 # 27 1 Sy: 1 Sp: 1 Exc: 13 E_tot:   -346.7682771030 w:     15.1390304151 E_grs:   -361.9073075181
 # 28 1 Exctot   Excited state Energy =    -346.7682771030
 # 29 1 Sy: 1 Sp: 1 Exc: 14 E_tot:   -346.7089971014 w:     15.1983104166 E_grs:   -361.9073075181
 # 30 1 Exctot   Excited state Energy =    -346.7089971014
 # 31 1 Sy: 1 Sp: 1 Exc: 15 E_tot:   -346.6329835547 w:     15.2743239634 E_grs:   -361.9073075181
 # 32 1 Exctot   Excited state Energy =    -346.6329835547
 # 33 1 |<O|XDIPLEN |i(14.827809)>| =     0.01463745
 # 35 1 |<O|XDIPLEN |i(14.894111)>| =     0.04481339
 # 37 1 |<O|XDIPLEN |i(14.919957)>| =     0.03725464
 # 39 1 |<O|XDIPLEN |i(14.971868)>| =     0.01681864
 # 41 1 |<O|XDIPLEN |i(14.976364)>| =     0.00825073
 # 43 1 |<O|XDIPLEN |i(15.009114)>| =     0.02184667
 # 45 1 |<O|XDIPLEN |i(15.016028)>| =    -0.00005797
 # 47 1 |<O|XDIPLEN |i(15.047898)>| =     0.00366205
 # 49 1 |<O|XDIPLEN |i(15.057908)>| =     0.01194681
 # 51 1 |<O|XDIPLEN |i(15.086107)>| =     0.00225623
 # 53 1 |<O|XDIPLEN |i(15.086927)>| =     0.00066644
 # 55 1 |<O|XDIPLEN |i(15.108468)>| =     0.00436972
 # 57 1 |<O|XDIPLEN |i(15.139030)>| =     0.01112355
 # 59 1 |<O|XDIPLEN |i(15.198310)>| =     0.00737595
 # 61 1 |<O|XDIPLEN |i(15.274324)>| =     0.00276847
 # 63 1 |<O|YDIPLEN |i(14.827809)>| =     0.01896000
 # 65 1 |<O|YDIPLEN |i(14.894111)>| =     0.03594130
 # 67 1 |<O|YDIPLEN |i(14.919957)>| =     0.03323722
 # 69 1 |<O|YDIPLEN |i(14.971868)>| =     0.01951043
 # 71 1 |<O|YDIPLEN |i(14.976364)>| =     0.02420319
 # 73 1 |<O|YDIPLEN |i(15.009114)>| =     0.00337332
 # 75 1 |<O|YDIPLEN |i(15.016028)>| =     0.02013868
 # 77 1 |<O|YDIPLEN |i(15.047898)>| =     0.00323087
 # 79 1 |<O|YDIPLEN |i(15.057908)>| =     0.00031366
 # 81 1 |<O|YDIPLEN |i(15.086107)>| =     0.00264043
 # 83 1 |<O|YDIPLEN |i(15.086927)>| =     0.00542707
 # 85 1 |<O|YDIPLEN |i(15.108468)>| =     0.00565206
 # 87 1 |<O|YDIPLEN |i(15.139030)>| =     0.01121146
 # 89 1 |<O|YDIPLEN |i(15.198310)>| =     0.00422444
 # 91 1 |<O|YDIPLEN |i(15.274324)>| =     0.00805245
 # 93 1 |<O|ZDIPLEN |i(14.827809)>| =     0.01873113
 # 95 1 |<O|ZDIPLEN |i(14.894111)>| =     0.01603914
 # 97 1 |<O|ZDIPLEN |i(14.919957)>| =     0.02516906
 # 99 1 |<O|ZDIPLEN |i(14.971868)>| =     0.00667185
 #101 1 |<O|ZDIPLEN |i(14.976364)>| =     0.03226568
 #103 1 |<O|ZDIPLEN |i(15.009114)>| =     0.00395199
 #105 1 |<O|ZDIPLEN |i(15.016028)>| =     0.02092921
 #107 1 |<O|ZDIPLEN |i(15.047898)>| =     0.00427700
 #109 1 |<O|ZDIPLEN |i(15.057908)>| =     0.00410434
 #111 1 |<O|ZDIPLEN |i(15.086107)>| =     0.00945373
 #113 1 |<O|ZDIPLEN |i(15.086927)>| =     0.01536240
 #115 1 |<O|ZDIPLEN |i(15.108468)>| =     0.02798438
 #117 1 |<O|ZDIPLEN |i(15.139030)>| =     0.01333140
 #119 1 |<O|ZDIPLEN |i(15.198310)>| =     0.00673946
 #121 1 |<O|ZDIPLEN |i(15.274324)>| =     0.02037529

 THE_END   
