

     ************************************************************************
     *************** Dalton - An Electronic Structure Program ***************
     ************************************************************************

    This is output from DALTON release Dalton2017.alpha (2016)
         ( Web site: http://daltonprogram.org )

   ----------------------------------------------------------------------------

    NOTE:
     
    Dalton is an experimental code for the evaluation of molecular
    properties using (MC)SCF, DFT, CI, and CC wave functions.
    The authors accept no responsibility for the performance of
    the code or for the correctness of the results.
     
    The code (in whole or part) is provided under a licence and
    is not to be reproduced for further distribution without
    the written permission of the authors or their representatives.
     
    See the home page "http://daltonprogram.org" for further information.
     
    If results obtained with this code are published,
    the appropriate citations would be both of:
     
       K. Aidas, C. Angeli, K. L. Bak, V. Bakken, R. Bast,
       L. Boman, O. Christiansen, R. Cimiraglia, S. Coriani,
       P. Dahle, E. K. Dalskov, U. Ekstroem,
       T. Enevoldsen, J. J. Eriksen, P. Ettenhuber, B. Fernandez,
       L. Ferrighi, H. Fliegl, L. Frediani, K. Hald, A. Halkier,
       C. Haettig, H. Heiberg, T. Helgaker, A. C. Hennum,
       H. Hettema, E. Hjertenaes, S. Hoest, I.-M. Hoeyvik,
       M. F. Iozzi, B. Jansik, H. J. Aa. Jensen, D. Jonsson,
       P. Joergensen, J. Kauczor, S. Kirpekar,
       T. Kjaergaard, W. Klopper, S. Knecht, R. Kobayashi, H. Koch,
       J. Kongsted, A. Krapp, K. Kristensen, A. Ligabue,
       O. B. Lutnaes, J. I. Melo, K. V. Mikkelsen, R. H. Myhre,
       C. Neiss, C. B. Nielsen, P. Norman, J. Olsen,
       J. M. H. Olsen, A. Osted, M. J. Packer, F. Pawlowski,
       T. B. Pedersen, P. F. Provasi, S. Reine, Z. Rinkevicius,
       T. A. Ruden, K. Ruud, V. Rybkin, P. Salek, C. C. M. Samson,
       A. Sanchez de Meras, T. Saue, S. P. A. Sauer,
       B. Schimmelpfennig, K. Sneskov, A. H. Steindal,
       K. O. Sylvester-Hvid, P. R. Taylor, A. M. Teale,
       E. I. Tellgren, D. P. Tew, A. J. Thorvaldsen, L. Thoegersen,
       O. Vahtras, M. A. Watson, D. J. D. Wilson, M. Ziolkowski
       and H. Agren,
       "The Dalton quantum chemistry program system",
       WIREs Comput. Mol. Sci. 2014, 4:269–284 (doi: 10.1002/wcms.1172)
     
    and
     
       Dalton, a Molecular Electronic Structure Program,
       Release Dalton2017.alpha (2016), see http://daltonprogram.org
   ----------------------------------------------------------------------------

    Authors in alphabetical order (major contribution(s) in parenthesis):

  Kestutis Aidas,           Vilnius University,           Lithuania   (QM/MM)
  Celestino Angeli,         University of Ferrara,        Italy       (NEVPT2)
  Keld L. Bak,              UNI-C,                        Denmark     (AOSOPPA, non-adiabatic coupling, magnetic properties)
  Vebjoern Bakken,          University of Oslo,           Norway      (DALTON; geometry optimizer, symmetry detection)
  Radovan Bast,             UiT The Arctic U. of Norway,  Norway      (DALTON installation and execution frameworks)
  Pablo Baudin,             University of Valencia,       Spain       (Cholesky excitation energies)
  Linus Boman,              NTNU,                         Norway      (Cholesky decomposition and subsystems)
  Ove Christiansen,         Aarhus University,            Denmark     (CC module)
  Renzo Cimiraglia,         University of Ferrara,        Italy       (NEVPT2)
  Sonia Coriani,            University of Trieste,        Italy       (CC module, MCD in RESPONS)
  Janusz Cukras,            University of Trieste,        Italy       (MChD in RESPONS)
  Paal Dahle,               University of Oslo,           Norway      (Parallelization)
  Erik K. Dalskov,          UNI-C,                        Denmark     (SOPPA)
  Thomas Enevoldsen,        Univ. of Southern Denmark,    Denmark     (SOPPA)
  Janus J. Eriksen,         Aarhus University,            Denmark     (Polarizable embedding model, TDA)
  Rasmus Faber,             University of Copenhagen,     Denmark     (Vib.avg. NMR with SOPPA, parallel AO-SOPPA)
  Berta Fernandez,          U. of Santiago de Compostela, Spain       (doublet spin, ESR in RESPONS)
  Lara Ferrighi,            Aarhus University,            Denmark     (PCM Cubic response)
  Heike Fliegl,             University of Oslo,           Norway      (CCSD(R12))
  Luca Frediani,            UiT The Arctic U. of Norway,  Norway      (PCM)
  Bin Gao,                  UiT The Arctic U. of Norway,  Norway      (Gen1Int library)
  Christof Haettig,         Ruhr-University Bochum,       Germany     (CC module)
  Kasper Hald,              Aarhus University,            Denmark     (CC module)
  Asger Halkier,            Aarhus University,            Denmark     (CC module)
  Frederik Beyer Hansen,    University of Copenhagen,     Denmark     (Parallel AO-SOPPA)
  Erik D. Hedegaard,        Univ. of Southern Denmark,    Denmark     (Polarizable embedding model, QM/MM)
  Hanne Heiberg,            University of Oslo,           Norway      (geometry analysis, selected one-electron integrals)
  Trygve Helgaker,          University of Oslo,           Norway      (DALTON; ABACUS, ERI, DFT modules, London, and much more)
  Alf Christian Hennum,     University of Oslo,           Norway      (Parity violation)
  Hinne Hettema,            University of Auckland,       New Zealand (quadratic response in RESPONS; SIRIUS supersymmetry)
  Eirik Hjertenaes,         NTNU,                         Norway      (Cholesky decomposition)
  Pi A. B. Haase,           University of Copenhagen,     Denmark     (Triplet AO-SOPPA)
  Maria Francesca Iozzi,    University of Oslo,           Norway      (RPA)
  Brano Jansik              Technical Univ. of Ostrava    Czech Rep.  (DFT cubic response)
  Hans Joergen Aa. Jensen,  Univ. of Southern Denmark,    Denmark     (DALTON; SIRIUS, RESPONS, ABACUS modules, London, and much more)
  Dan Jonsson,              UiT The Arctic U. of Norway,  Norway      (cubic response in RESPONS module)
  Poul Joergensen,          Aarhus University,            Denmark     (RESPONS, ABACUS, and CC modules)
  Maciej Kaminski,          University of Warsaw,         Poland      (CPPh in RESPONS)
  Joanna Kauczor,           Linkoeping University,        Sweden      (Complex polarization propagator (CPP) module)
  Sheela Kirpekar,          Univ. of Southern Denmark,    Denmark     (Mass-velocity & Darwin integrals)
  Wim Klopper,              KIT Karlsruhe,                Germany     (R12 code in CC, SIRIUS, and ABACUS modules)
  Stefan Knecht,            ETH Zurich,                   Switzerland (Parallel CI and MCSCF)
  Rika Kobayashi,           Australian National Univ.,    Australia   (DIIS in CC, London in MCSCF)
  Henrik Koch,              NTNU,                         Norway      (CC module, Cholesky decomposition)
  Jacob Kongsted,           Univ. of Southern Denmark,    Denmark     (Polarizable embedding model, QM/MM)
  Andrea Ligabue,           University of Modena,         Italy       (CTOCD, AOSOPPA)
  Nanna H. List             Univ. of Southern Denmark,    Denmark     (Polarizable embedding model)
  Ola B. Lutnaes,           University of Oslo,           Norway      (DFT Hessian)
  Juan I. Melo,             University of Buenos Aires,   Argentina   (LRESC, Relativistic Effects on NMR Shieldings)
  Kurt V. Mikkelsen,        University of Copenhagen,     Denmark     (MC-SCRF and QM/MM)
  Rolf H. Myhre,            NTNU,                         Norway      (Cholesky, subsystems and ECC2)
  Christian Neiss,          Univ. Erlangen-Nuernberg,     Germany     (CCSD(R12))
  Christian B. Nielsen,     University of Copenhagen,     Denmark     (QM/MM)
  Patrick Norman,           Linkoeping University,        Sweden      (Cubic response and complex frequency response in RESPONS)
  Jeppe Olsen,              Aarhus University,            Denmark     (SIRIUS CI/density modules)
  Jogvan Magnus H. Olsen,   Univ. of Southern Denmark,    Denmark     (Polarizable embedding model, QM/MM)
  Anders Osted,             Copenhagen University,        Denmark     (QM/MM)
  Martin J. Packer,         University of Sheffield,      UK          (SOPPA)
  Filip Pawlowski,          Kazimierz Wielki University,  Poland      (CC3)
  Morten N. Pedersen,       Univ. of Southern Denmark,    Denmark     (Polarizable embedding model)
  Thomas B. Pedersen,       University of Oslo,           Norway      (Cholesky decomposition)
  Patricio F. Provasi,      University of Northeastern,   Argentina   (Analysis of coupling constants in localized orbitals)
  Zilvinas Rinkevicius,     KTH Stockholm,                Sweden      (open-shell DFT, ESR)
  Elias Rudberg,            KTH Stockholm,                Sweden      (DFT grid and basis info)
  Torgeir A. Ruden,         University of Oslo,           Norway      (Numerical derivatives in ABACUS)
  Kenneth Ruud,             UiT The Arctic U. of Norway,  Norway      (DALTON; ABACUS magnetic properties and much more)
  Pawel Salek,              KTH Stockholm,                Sweden      (DALTON; DFT code)
  Claire C. M. Samson       University of Karlsruhe       Germany     (Boys localization, r12 integrals in ERI)
  Alfredo Sanchez de Meras, University of Valencia,       Spain       (CC module, Cholesky decomposition)
  Trond Saue,               Paul Sabatier University,     France      (direct Fock matrix construction)
  Stephan P. A. Sauer,      University of Copenhagen,     Denmark     (SOPPA(CCSD), SOPPA prop., AOSOPPA, vibrational g-factors)
  Bernd Schimmelpfennig,    Forschungszentrum Karlsruhe,  Germany     (AMFI module)
  Kristian Sneskov,         Aarhus University,            Denmark     (Polarizable embedding model, QM/MM)
  Arnfinn H. Steindal,      UiT The Arctic U. of Norway,  Norway      (parallel QM/MM, Polarizable embedding model)
  Casper Steinmann,         Univ. of Southern Denmark,    Denmark     (QFIT, Polarizable embedding model)
  K. O. Sylvester-Hvid,     University of Copenhagen,     Denmark     (MC-SCRF)
  Peter R. Taylor,          VLSCI/Univ. of Melbourne,     Australia   (Symmetry handling ABACUS, integral transformation)
  Andrew M. Teale,          University of Nottingham,     England     (DFT-AC, DFT-D)
  David P. Tew,             University of Bristol,        England     (CCSD(R12))
  Olav Vahtras,             KTH Stockholm,                Sweden      (triplet response, spin-orbit, ESR, TDDFT, open-shell DFT)
  David J. Wilson,          La Trobe University,          Australia   (DFT Hessian and DFT magnetizabilities)
  Hans Agren,               KTH Stockholm,                Sweden      (SIRIUS module, RESPONS, MC-SCRF solvation model)
 --------------------------------------------------------------------------------

     Date and time (Linux)  : Sat Dec 22 18:53:20 2018
     Host name              : n-62-29-8                               

 * Work memory size             :  1280000000 =  9.537 gigabytes.

 * Directories for basis set searches:
   1) /zhome/37/3/129401/NH3NH4/CCSD/AIMD_SAMPLING/nh3_4h2o_nd
   2) /zhome/9a/4/124800/source/dalton/build-mlcc/basis


Compilation information
-----------------------

 Who compiled             | rfaber
 Host                     | hpclogin1
 System                   | Linux-2.6.32-696.1.1.el6.x86_64
 CMake generator          | Unix Makefiles
 Processor                | x86_64
 64-bit integers          | ON
 MPI                      | OFF
 Fortran compiler         | /opt/intel/2016update2/compilers_and_libraries_201
                          | 6.2.181/linux/bin/intel64/ifort
 Fortran compiler version | ifort (IFORT) 16.0.2 20160204
 C compiler               | /opt/intel/2016update2/compilers_and_libraries_201
                          | 6.2.181/linux/bin/intel64/icc
 C compiler version       | icc (ICC) 16.0.2 20160204
 C++ compiler             | /opt/intel/2016update2/compilers_and_libraries_201
                          | 6.2.181/linux/bin/intel64/icpc
 C++ compiler version     | icpc (ICC) 16.0.2 20160204
 Static linking           | OFF
 Last Git revision        | bb4d1599ca5680a9f3980451fc8bbefdba436d59
 Git branch               | mlcc
 Configuration time       | 2017-06-13 16:11:03.928841


   Content of the .dal input file
 ----------------------------------

**DALTON
.RUN WAVE FUNCTIONS
*QMMM
.QMMM
**INTEGRALS
.DIPLEN
**WAVE FUNCTIONS
.CC
*PRINT
!To check the origin of excit
.PRINTL
   0 11
*SCF INP
.THRESH
1.0D-7
*CC INP
.CCSD
.THRLEQ
 1.0D-9
.THRENR
 1.0D-10
.FROIMP
4
0
.PRINT
 1
.MAX IT
 1200
.MAXRED
 1200
.MXLRV
1199
*CCSLV
.CCMM
.MXSLIT
200
.MXINIT
4 5
*CCEXCI
.NCCEXC
 15
.CVSEPARA
1
1
*CCLRSD
.DIPOLE
**END OF DALTON INPUT


   Content of the .mol file
 ----------------------------

ATOMBASIS


Atomtypes=4 Charge=0 Nosymm Angstrom
   7.00000    1    Basis=6-311G**
N          0.000000        0.000000        0.000000
   1.00000    3    Basis=6-311G**
H          0.301663        0.772217        0.644947
H         -0.928974       -0.300427        0.296094
H          0.626860       -0.755670        0.311718
   8.00000    4    Basis=6-311G**
O          2.528548        0.422998        1.849601
O          0.172644        1.093494       -2.452925
O          2.017544       -3.202921        0.991320
O         -2.329196       -0.104529        2.634837
   1.00000    8    Basis=6-311G**
H          2.453214        1.307151        2.263420
H          3.503092        0.382796        1.598312
H          0.920408        0.889387       -3.004689
H          0.254633        0.787409       -1.511378
H          2.056819       -2.531263        1.689824
H          1.625066       -2.761517        0.186173
H         -3.139204        0.059545        2.044513
H         -2.030216       -1.038849        2.424102


       *******************************************************************
       *********** Output from DALTON general input processing ***********
       *******************************************************************

 --------------------------------------------------------------------------------
   Overall default print level:    0
   Print level for DALTON.STAT:    1

    HERMIT 1- and 2-electron integral sections will be executed
    "Old" integral transformation used (limited to max 255 basis functions)
    Wave function sections will be executed (SIRIUS module)
 --------------------------------------------------------------------------------


 Changes of defaults for *QMMM  :
 --------------------------------

 +------------------+
 |  WORD: | CHANGE: |
 +------------------+
 |   QMMM |       T |
 +------------------+
 


   ****************************************************************************
   *************** Output of molecule and basis set information ***************
   ****************************************************************************


    The two title cards from your ".mol" input:
    ------------------------------------------------------------------------
 1:                                                                         
 2:                                                                         
    ------------------------------------------------------------------------

  Coordinates are entered in Angstrom and converted to atomic units.
          - Conversion factor : 1 bohr = 0.52917721 A

  Atomic type no.    1
  --------------------
  Nuclear charge:   7.00000
  Number of symmetry independent centers:    1
  Number of basis sets to read;    2
  The basis set is "6-311G**" from the basis set library.
  Basis set file used for this atomic type with Z =   7 :
     "/zhome/9a/4/124800/source/dalton/build-mlcc/basis/6-311G**"

  Info about the basis set file: your basis has no documentation.
  Basis set: 6-311G**                                                                        

  Atomic type no.    2
  --------------------
  Nuclear charge:   1.00000
  Number of symmetry independent centers:    3
  Number of basis sets to read;    2
  The basis set is "6-311G**" from the basis set library.
  Basis set file used for this atomic type with Z =   1 :
     "/zhome/9a/4/124800/source/dalton/build-mlcc/basis/6-311G**"

  Info about the basis set file: your basis has no documentation.
  Basis set: 6-311G**                                                                        

  Atomic type no.    3
  --------------------
  Nuclear charge:   8.00000
  Number of symmetry independent centers:    4
  Number of basis sets to read;    2
  The basis set is "6-311G**" from the basis set library.
  Basis set file used for this atomic type with Z =   8 :
     "/zhome/9a/4/124800/source/dalton/build-mlcc/basis/6-311G**"

  Info about the basis set file: your basis has no documentation.
  Basis set: 6-311G**                                                                        

  Atomic type no.    4
  --------------------
  Nuclear charge:   1.00000
  Number of symmetry independent centers:    8
  Number of basis sets to read;    2
  The basis set is "6-311G**" from the basis set library.
  Basis set file used for this atomic type with Z =   1 :
     "/zhome/9a/4/124800/source/dalton/build-mlcc/basis/6-311G**"

  Info about the basis set file: your basis has no documentation.
  Basis set: 6-311G**                                                                        


                         SYMGRP: Point group information
                         -------------------------------

@    Point group: C1 


                                 Isotopic Masses
                                 ---------------

                           N          14.003074
                           H           1.007825
                           H           1.007825
                           H           1.007825
                           O          15.994915
                           O          15.994915
                           O          15.994915
                           O          15.994915
                           H           1.007825
                           H           1.007825
                           H           1.007825
                           H           1.007825
                           H           1.007825
                           H           1.007825
                           H           1.007825
                           H           1.007825

                       Total mass:    89.068809 amu
                       Natural abundance:  98.514 %

 Center-of-mass coordinates (a.u.):    0.931573   -0.675965    1.174275


  Atoms and basis sets
  --------------------

  Number of atom types :    4
  Total number of atoms:   16

  label    atoms   charge   prim   cont     basis
  ----------------------------------------------------------------------
  N           1    7.0000    31    18      [11s5p1d|4s3p1d]                                   
  H           3    1.0000     8     6      [5s1p|3s1p]                                        
  O           4    8.0000    31    18      [11s5p1d|4s3p1d]                                   
  H           8    1.0000     8     6      [5s1p|3s1p]                                        
  ----------------------------------------------------------------------
  total:     16   50.0000   243   156
  ----------------------------------------------------------------------
  Spherical harmonic basis used.

  Threshold for neglecting AO integrals:  1.00D-12


  Cartesian Coordinates (a.u.)
  ----------------------------

  Total number of coordinates:   48
  N       :     1  x   0.0000000000    2  y   0.0000000000    3  z   0.0000000000
  H       :     4  x   0.5700604520    5  y   1.4592786391    6  z   1.2187731951
  H       :     7  x  -1.7555064372    8  y  -0.5677247506    9  z   0.5595365673
  H       :    10  x   1.1845937187   11  y  -1.4280093409   12  z   0.5890616482
  O       :    13  x   4.7782632139   14  y   0.7993503714   15  z   3.4952393305
  O       :    16  x   0.3262498771   17  y   2.0664041793   18  z  -4.6353564551
  O       :    19  x   3.8126056051   20  y  -6.0526434900   21  z   1.8733233022
  O       :    22  x  -4.4015425314   23  y  -0.1975311821   24  z   4.9791203140
  H       :    25  x   4.6359025860   26  y   2.4701573940   27  z   4.2772439058
  H       :    28  x   6.6198844707   29  y   0.7233796017   30  z   3.0203719423
  H       :    31  x   1.7393190433   32  y   1.6806978491   33  z  -5.6780393008
  H       :    34  x   0.4811866324   35  y   1.4879873584   36  z  -2.8560904913
  H       :    37  x   3.8868245987   38  y  -4.7833938203   39  z   3.1933045594
  H       :    40  x   3.0709296750   41  y  -5.2185108195   42  z   0.3518159819
  H       :    43  x  -5.9322358105   44  y   0.1125237421   45  z   3.8635696290
  H       :    46  x  -3.8365522146   47  y  -1.9631400952   48  z   4.5808888790


   Interatomic separations (in Angstrom):
   --------------------------------------

            N           H           H           H           O           O     
            ------      ------      ------      ------      ------      ------
 N     :    0.000000
 H     :    1.050370    0.000000
 H     :    1.020255    1.669350    0.000000
 H     :    1.030126    1.597258    1.621145    0.000000
 O     :    3.161251    2.555809    3.858910    2.714914    0.000000
 O     :    2.691166    3.117158    3.273176    3.356929    4.950917    0.000000
 O     :    3.913043    4.343494    4.194017    2.895669    3.760992    5.807380
 O     :    3.518302    3.413175    2.732895    3.815643    4.948996    5.794807
 H     :    3.584686    2.744956    4.230115    3.376380    0.979106    5.243144
 H     :    3.869469    3.362990    4.669665    3.350245    1.007223    5.292400
 H     :    3.265933    3.703568    3.966237    3.713615    5.134955    0.951448
 H     :    1.723112    2.156891    2.418939    2.417297    4.074269    0.993439
 H     :    3.673323    3.883983    3.979205    2.663961    2.995950    5.818191
 H     :    3.209591    3.801203    3.548544    2.244014    3.704647    4.892390
 H     :    3.746756    3.782361    2.841068    4.224972    5.682737    5.680170
 H     :    3.328251    3.447175    2.507273    3.406231    4.821761    5.760631

            O           O           H           H           H           H     
            ------      ------      ------      ------      ------      ------
 O     :    0.000000
 O     :    5.585278    0.000000
 H     :    4.706251    5.000224    0.000000
 H     :    3.928442    5.943690    1.548885    0.000000
 H     :    5.823983    6.584227    5.502453    5.302312    0.000000
 H     :    5.029323    4.966168    4.399203    4.515127    1.638180    0.000000
 H     :    0.969832    5.100903    3.901226    3.254508    5.918676    4.950672
 H     :    0.998568    5.356466    4.642719    3.925280    4.899719    4.165890
 H     :    6.192330    1.015636    5.734072    6.665109    6.531732    4.969132
 H     :    4.808371    1.003370    5.062675    5.772391    6.472716    4.903443

            H           H           H           H     
            ------      ------      ------      ------
 H     :    0.000000
 H     :    1.581263    0.000000
 H     :    5.816936    5.840384    0.000000
 H     :    4.412518    4.619199    1.606366    0.000000


  Max    interatomic separation is    6.6651 Angstrom (   12.5952 Bohr)
  between atoms   15 and   10, "H     " and "H     ".

  Min HX interatomic separation is    0.9514 Angstrom (    1.7980 Bohr)

  Min YX interatomic separation is    2.6912 Angstrom (    5.0856 Bohr)


  Bond distances (Angstrom):
  --------------------------

                  atom 1     atom 2       distance
                  ------     ------       --------
  bond distance:  H          N            1.050370
  bond distance:  H          N            1.020255
  bond distance:  H          N            1.030126
  bond distance:  H          O            0.979106
  bond distance:  H          O            1.007223
  bond distance:  H          O            0.951448
  bond distance:  H          O            0.993439
  bond distance:  H          O            0.969832
  bond distance:  H          O            0.998568
  bond distance:  H          O            1.015636
  bond distance:  H          O            1.003370


  Bond angles (degrees):
  ----------------------

                  atom 1     atom 2     atom 3         angle
                  ------     ------     ------         -----
  bond angle:     H          N          H            107.445
  bond angle:     H          N          H            100.296
  bond angle:     H          N          H            104.493
  bond angle:     H          O          H            102.470
  bond angle:     H          O          H            114.751
  bond angle:     H          O          H            106.888
  bond angle:     H          O          H            105.427




 Principal moments of inertia (u*A**2) and principal axes
 --------------------------------------------------------

   IA     420.164822          0.453648   -0.598298    0.660487
   IB     445.658464          0.790605   -0.071843   -0.608097
   IC     625.101839          0.411275    0.798046    0.440426


 Rotational constants
 --------------------

               A                   B                   C

           1202.8113           1134.0052            808.4747 MHz
            0.040121            0.037826            0.026968 cm-1


@  Nuclear repulsion energy :  176.254102334888 Hartree


                     .---------------------------------------.
                     | Starting in Integral Section (HERMIT) |
                     `---------------------------------------'



 ***************************************************************************************
 ****************** Output from **INTEGRALS input processing (HERMIT) ******************
 ***************************************************************************************



    *************************************************************************
    ****************** Output from HERMIT input processing ******************
    *************************************************************************


 Default print level:        1

 * Nuclear model: Point charge

 Calculation of one- and two-electron Hamiltonian integrals.

 The following one-electron property integrals are calculated as requested:
          - overlap integrals
          - dipole length integrals

 Center of mass  (bohr):      0.931573168646     -0.675965317551      1.174275055334
 Operator center (bohr):      0.000000000000      0.000000000000      0.000000000000
 Gauge origin    (bohr):      0.000000000000      0.000000000000      0.000000000000
 Dipole origin   (bohr):      0.000000000000      0.000000000000      0.000000000000
 
  *********************************** 
  QMMM electrostatic potential: 
  Multipole order                                    0
  Isotropic polarization  
  *********************************** 
 
  ---------------- 
  QMMM information 
  ---------------- 
 
  MM coordinates in au 
  -------------------- 
     1    -11.583176      2.439824      7.998598
     2    -10.047421      3.472260      8.077251
     3    -13.004067      3.533981      8.309530
     4     -9.167328    -11.251307     -1.286042
     5     -7.738593    -12.389798     -1.142636
     6     -9.124168    -10.487268      0.366820
     7     -3.566467     -5.344554      3.960135
     8     -2.619446     -6.213741      5.267812
     9     -4.956995     -6.352384      3.246514
    10     -7.625956      5.996281      7.578611
    11     -7.434215      7.378029      8.798595
    12     -7.755980      6.862801      6.009529
    13     -5.506210     -3.721931     -2.798735
    14     -6.156253     -2.822777     -1.270215
    15     -4.770765     -2.493779     -3.953999
    16      1.410269     -5.644551    -10.222184
    17      0.559176     -4.476946    -11.364705
    18      1.724218     -4.665254     -8.660539
    19     11.473659      1.162403    -10.148375
    20     10.318390      2.091541     -8.993622
    21     11.780065      1.942172    -11.699034
    22      4.036510     -9.205529     10.120294
    23      3.569254     -7.761166     11.163251
    24      2.971562     -9.125499      8.590842
    25      7.932861     -5.413183      8.429208
    26      8.157704     -4.554574     10.109320
    27      6.962566     -6.919024      8.799236
    28     -7.449204     -0.301657     -9.407436
    29     -9.154544      0.585745     -9.627043
    30     -6.805594     -1.103664    -10.955583
    31     -4.923685     -6.173900    -10.820243
    32     -3.948099     -5.095204     -9.768465
    33     -6.728729     -6.260313    -10.255687
    34      2.755742     -5.668785     -4.155901
    35      3.865524     -7.083975     -3.763433
    36      1.175994     -6.412256     -3.444219
    37     -1.919383      2.811737      9.660076
    38     -2.545786      3.467028     11.316449
    39     -3.473867      2.545350      8.746408
    40    -11.237770     -0.989376     -4.117613
    41    -11.178346     -2.910125     -3.924445
    42    -10.299911     -0.810951     -5.687087
    43    -10.728089      6.946756     -6.194038
    44    -11.663873      7.996616     -4.920144
    45     -8.881373      7.246400     -6.096627
    46    -10.079325      8.812989      2.730955
    47    -11.679611      9.545683      3.253736
    48    -10.713099      7.151260      2.203432
    49     -0.200645     -2.112954      9.584184
    50      0.784388     -2.635132      7.912771
    51     -0.697715     -0.300568      9.639945
    52     -3.378296     11.591249      6.800361
    53     -2.553337      9.871954      6.764923
    54     -4.586452     11.392556      8.362811
    55    -11.409110      3.827962     -1.864708
    56    -11.255335      4.505963     -3.445908
    57    -12.265761      2.160909     -2.259236
    58     -7.520409     -9.070506      3.661333
    59     -8.490029     -8.218597      5.022176
    60     -6.398541    -10.176175      4.689964
    61      4.124414    -10.623993      4.612910
    62      3.375890    -12.090182      3.697157
    63      3.803675     -9.125480      3.467109
    64      9.522332     11.729704      5.461288
    65      7.826837     12.457014      5.108019
    66     10.177496     12.327407      7.036701
    67      4.747631      4.594710    -11.586620
    68      5.762688      3.889517    -12.915411
    69      3.806536      3.105181    -10.850749
    70     11.663815    -10.863402     10.622580
    71     12.278565     -9.326651     11.547332
    72     10.555500    -11.874366     11.817956
    73      8.287789      6.199704      1.922418
    74      8.456111      7.653723      0.808612
    75      9.643726      5.109455      1.301347
    76      3.916854     -3.255938      6.154288
    77      5.487349     -3.913723      7.139136
    78      4.346699     -1.526543      5.269320
    79      1.318441      9.070710     10.689172
    80      0.690546      8.090583      9.126941
    81      2.860962      8.236184     11.025669
    82     -3.302068     -1.629097     -6.727701
    83     -4.815308     -0.686496     -7.458664
    84     -2.006392     -0.587726     -6.039767
    85      9.776124     -6.614168     -4.638824
    86      9.297989     -6.589139     -2.843605
    87      8.940791     -5.114498     -5.343380
    88      9.068718      6.894879      9.379312
    89      8.081565      8.057686     10.429077
    90     10.173237      7.973954      8.459544
    91      2.787835      0.094180     -9.621524
    92      2.452846     -0.909111    -10.996309
    93      3.931341     -0.855422     -8.332730
    94     -0.891548    -10.461573    -10.258639
    95     -0.047587     -8.893146    -10.449934
    96      0.081355    -11.654483    -11.378217
    97      8.509110      4.697090     -7.931453
    98      7.403921      5.026581     -9.299869
    99      9.911525      6.029770     -7.702458
   100      5.876496     -2.274047     -6.339621
   101      4.598737     -3.206555     -5.345321
   102      6.604687     -1.158623     -5.069937
   103      7.064172     10.879813    -11.227598
   104      6.123257     11.992710    -12.406778
   105      5.708606     10.184023    -10.227485
   106     -1.660056     -7.001879     -1.082940
   107     -1.569845     -6.463222      0.645795
   108     -3.177316     -6.072064     -1.711270
   109     -6.585463     -2.774590      8.967958
   110     -5.893353     -1.762190      7.590081
   111     -5.300943     -3.983388      9.568041
   112      5.622888    -10.047899     -3.839247
   113      6.707815     -8.931165     -4.905130
   114      4.314451    -10.809078     -5.068068
   115     -0.391602      6.555664      6.651358
   116     -1.040888      4.991005      7.429088
   117      1.354730      6.355563      6.097736
   118     -1.305051     -7.654258      8.018890
   119     -2.324255     -7.496226      9.573320
   120     -1.183158     -9.515089      7.817803
   121     -1.583796      5.472639     -9.019464
   122     -0.920882      4.178740     -7.967271
   123     -0.257562      6.711306     -9.513093
   124     -5.426330    -11.388922     -8.404481
   125     -3.928860    -10.476317     -9.073768
   126     -6.328770    -10.105116     -7.289507
   127      2.858131     10.301787     -7.319688
   128      2.529179      9.100666     -5.931650
   129      1.357608     11.057804     -7.984951
   130     -5.769850      7.367853     -5.868533
   131     -5.036192      9.068592     -6.452474
   132     -4.704112      6.033684     -6.581132
   133      2.979781      6.862195     -3.720423
   134      1.747182      5.437281     -3.846443
   135      2.632060      7.825558     -2.137220
   136      4.838353      5.725250      5.460479
   137      5.864051      6.331490      6.844083
   138      5.861354      6.225852      3.971273
   139      9.555153      9.428690     -2.661401
   140     10.857401     10.454796     -1.847891
   141      8.134373     10.546665     -3.177593
   142      1.588912      9.192138      1.325707
   143      1.188823      7.416240      1.760253
   144     -0.159162      9.879422      0.966928
   145      9.101709     -3.314119    -10.730230
   146      7.541205     -3.041639     -9.712767
   147      9.887716     -1.607505    -10.904757
   148     -7.806950      0.184639      0.751676
   149     -8.683290      1.524361     -0.109597
   150     -9.072624     -1.230879      1.127350
   151      7.006265      2.113755     -3.464303
   152      7.569782      3.443895     -4.692798
   153      6.532449      2.950348     -1.869892
   154     -6.685099     10.461475     10.444057
   155     -6.014915     10.926270     12.159190
   156     -8.431338     11.108649     10.392575
   157     -8.037313     -7.871692     -5.119926
   158     -7.184266     -6.483819     -4.321549
   159     -8.609834     -8.797913     -3.679164
   160    -10.142687     -5.899733      6.924488
   161     -8.943839     -4.756059      7.899059
   162    -11.617311     -6.438718      7.858143
   163      9.832908      0.891733      3.235247
   164     10.444392     -0.617982      2.420125
   165     10.874478      1.198137      4.813361
   166     -2.925651     11.706988      0.533307
   167     -3.512500     12.040167      2.212684
   168     -2.784997     13.256954     -0.521389
   169      9.030378     -7.632260      0.723168
   170      7.225691     -7.125796      1.298272
   171      9.388033     -9.310569      1.503719
   172    -11.154537     -3.574946      2.285943
   173    -10.838951     -4.029304      4.082179
   174    -12.410429     -4.928375      1.929824
   175    -10.415258     -6.948017     -9.726294
   176    -10.287837     -7.610774     -8.008986
   177    -11.917979     -5.754577     -9.716794
 
  MM charges 
  ---------- 
     1     -0.674440
     2      0.337220
     3      0.337220
     4     -0.674440
     5      0.337220
     6      0.337220
     7     -0.674440
     8      0.337220
     9      0.337220
    10     -0.674440
    11      0.337220
    12      0.337220
    13     -0.674440
    14      0.337220
    15      0.337220
    16     -0.674440
    17      0.337220
    18      0.337220
    19     -0.674440
    20      0.337220
    21      0.337220
    22     -0.674440
    23      0.337220
    24      0.337220
    25     -0.674440
    26      0.337220
    27      0.337220
    28     -0.674440
    29      0.337220
    30      0.337220
    31     -0.674440
    32      0.337220
    33      0.337220
    34     -0.674440
    35      0.337220
    36      0.337220
    37     -0.674440
    38      0.337220
    39      0.337220
    40     -0.674440
    41      0.337220
    42      0.337220
    43     -0.674440
    44      0.337220
    45      0.337220
    46     -0.674440
    47      0.337220
    48      0.337220
    49     -0.674440
    50      0.337220
    51      0.337220
    52     -0.674440
    53      0.337220
    54      0.337220
    55     -0.674440
    56      0.337220
    57      0.337220
    58     -0.674440
    59      0.337220
    60      0.337220
    61     -0.674440
    62      0.337220
    63      0.337220
    64     -0.674440
    65      0.337220
    66      0.337220
    67     -0.674440
    68      0.337220
    69      0.337220
    70     -0.674440
    71      0.337220
    72      0.337220
    73     -0.674440
    74      0.337220
    75      0.337220
    76     -0.674440
    77      0.337220
    78      0.337220
    79     -0.674440
    80      0.337220
    81      0.337220
    82     -0.674440
    83      0.337220
    84      0.337220
    85     -0.674440
    86      0.337220
    87      0.337220
    88     -0.674440
    89      0.337220
    90      0.337220
    91     -0.674440
    92      0.337220
    93      0.337220
    94     -0.674440
    95      0.337220
    96      0.337220
    97     -0.674440
    98      0.337220
    99      0.337220
   100     -0.674440
   101      0.337220
   102      0.337220
   103     -0.674440
   104      0.337220
   105      0.337220
   106     -0.674440
   107      0.337220
   108      0.337220
   109     -0.674440
   110      0.337220
   111      0.337220
   112     -0.674440
   113      0.337220
   114      0.337220
   115     -0.674440
   116      0.337220
   117      0.337220
   118     -0.674440
   119      0.337220
   120      0.337220
   121     -0.674440
   122      0.337220
   123      0.337220
   124     -0.674440
   125      0.337220
   126      0.337220
   127     -0.674440
   128      0.337220
   129      0.337220
   130     -0.674440
   131      0.337220
   132      0.337220
   133     -0.674440
   134      0.337220
   135      0.337220
   136     -0.674440
   137      0.337220
   138      0.337220
   139     -0.674440
   140      0.337220
   141      0.337220
   142     -0.674440
   143      0.337220
   144      0.337220
   145     -0.674440
   146      0.337220
   147      0.337220
   148     -0.674440
   149      0.337220
   150      0.337220
   151     -0.674440
   152      0.337220
   153      0.337220
   154     -0.674440
   155      0.337220
   156      0.337220
   157     -0.674440
   158      0.337220
   159      0.337220
   160     -0.674440
   161      0.337220
   162      0.337220
   163     -0.674440
   164      0.337220
   165      0.337220
   166     -0.674440
   167      0.337220
   168      0.337220
   169     -0.674440
   170      0.337220
   171      0.337220
   172     -0.674440
   173      0.337220
   174      0.337220
   175     -0.674440
   176      0.337220
   177      0.337220
 
  MM isotropic polarizabilities in au 
  ----------------------------------- 
     1      5.739350
     2      2.308390
     3      2.308390
     4      5.739350
     5      2.308390
     6      2.308390
     7      5.739350
     8      2.308390
     9      2.308390
    10      5.739350
    11      2.308390
    12      2.308390
    13      5.739350
    14      2.308390
    15      2.308390
    16      5.739350
    17      2.308390
    18      2.308390
    19      5.739350
    20      2.308390
    21      2.308390
    22      5.739350
    23      2.308390
    24      2.308390
    25      5.739350
    26      2.308390
    27      2.308390
    28      5.739350
    29      2.308390
    30      2.308390
    31      5.739350
    32      2.308390
    33      2.308390
    34      5.739350
    35      2.308390
    36      2.308390
    37      5.739350
    38      2.308390
    39      2.308390
    40      5.739350
    41      2.308390
    42      2.308390
    43      5.739350
    44      2.308390
    45      2.308390
    46      5.739350
    47      2.308390
    48      2.308390
    49      5.739350
    50      2.308390
    51      2.308390
    52      5.739350
    53      2.308390
    54      2.308390
    55      5.739350
    56      2.308390
    57      2.308390
    58      5.739350
    59      2.308390
    60      2.308390
    61      5.739350
    62      2.308390
    63      2.308390
    64      5.739350
    65      2.308390
    66      2.308390
    67      5.739350
    68      2.308390
    69      2.308390
    70      5.739350
    71      2.308390
    72      2.308390
    73      5.739350
    74      2.308390
    75      2.308390
    76      5.739350
    77      2.308390
    78      2.308390
    79      5.739350
    80      2.308390
    81      2.308390
    82      5.739350
    83      2.308390
    84      2.308390
    85      5.739350
    86      2.308390
    87      2.308390
    88      5.739350
    89      2.308390
    90      2.308390
    91      5.739350
    92      2.308390
    93      2.308390
    94      5.739350
    95      2.308390
    96      2.308390
    97      5.739350
    98      2.308390
    99      2.308390
   100      5.739350
   101      2.308390
   102      2.308390
   103      5.739350
   104      2.308390
   105      2.308390
   106      5.739350
   107      2.308390
   108      2.308390
   109      5.739350
   110      2.308390
   111      2.308390
   112      5.739350
   113      2.308390
   114      2.308390
   115      5.739350
   116      2.308390
   117      2.308390
   118      5.739350
   119      2.308390
   120      2.308390
   121      5.739350
   122      2.308390
   123      2.308390
   124      5.739350
   125      2.308390
   126      2.308390
   127      5.739350
   128      2.308390
   129      2.308390
   130      5.739350
   131      2.308390
   132      2.308390
   133      5.739350
   134      2.308390
   135      2.308390
   136      5.739350
   137      2.308390
   138      2.308390
   139      5.739350
   140      2.308390
   141      2.308390
   142      5.739350
   143      2.308390
   144      2.308390
   145      5.739350
   146      2.308390
   147      2.308390
   148      5.739350
   149      2.308390
   150      2.308390
   151      5.739350
   152      2.308390
   153      2.308390
   154      5.739350
   155      2.308390
   156      2.308390
   157      5.739350
   158      2.308390
   159      2.308390
   160      5.739350
   161      2.308390
   162      2.308390
   163      5.739350
   164      2.308390
   165      2.308390
   166      5.739350
   167      2.308390
   168      2.308390
   169      5.739350
   170      2.308390
   171      2.308390
   172      5.739350
   173      2.308390
   174      2.308390
   175      5.739350
   176      2.308390
   177      2.308390


     ************************************************************************
     ************************** Output from HERINT **************************
     ************************************************************************



                      Nuclear contribution to dipole moments
                      --------------------------------------

                 au               Debye          C m (/(10**-30)

      x     46.78901603       118.92580874       396.69379788
      y    -33.10211521       -84.13717912      -280.65142026
      z     58.81904845       149.50309922       498.68866020


  Time used in HUCKEL     is       0.28 seconds
  Time used in OVERLAP    is       0.78 seconds
  Time used in POPOVLP    is       0.34 seconds
  Time used in DIPLEN     is       0.21 seconds
  Time used in QUADRUP    is       0.79 seconds
  Time used in KINENE     is       0.27 seconds

 Threshold for neglecting two-electron integrals:  1.00D-12
 HERMIT - Number of two-electron integrals written:    26367938 ( 35.2% )
 HERMIT - Megabytes written:                            301.928

  Time used in TWOINT     is      13.32 seconds
  Total CPU  time used in HERMIT:  16.05 seconds
  Total wall time used in HERMIT:   5.44 seconds


                        .----------------------------------.
                        | End of Integral Section (HERMIT) |
                        `----------------------------------'



                   .--------------------------------------------.
                   | Starting in Wave Function Section (SIRIUS) |
                   `--------------------------------------------'

NCCEXCI for singlet:   15
 CCSD_INPUT: core-val requested
 Requested number of core orbs per sym
                     1
 Indices of requested core orbs
                     1

 *** Output from Huckel module :

     Using EWMO model:          T
     Using EHT  model:          F
     Number of Huckel orbitals each symmetry:   36

 EWMO - Energy Weighted Maximum Overlap - is a Huckel type method,
        which normally is better than Extended Huckel Theory.
 Reference: Linderberg and Ohrn, Propagators in Quantum Chemistry (Wiley, 1973)

 Huckel EWMO eigenvalues for symmetry :  1
          -20.684759     -20.684621     -20.684386     -20.684210     -15.673570
           -1.701233      -1.607197      -1.583241      -1.579386      -1.463709
           -0.824321      -0.786984      -0.780036      -0.778434      -0.748157
           -0.709171      -0.690855      -0.685247      -0.669343      -0.657596
           -0.616533      -0.614679      -0.612850      -0.602507      -0.514050
           -0.257607      -0.248496      -0.234706      -0.223274      -0.185194
           -0.181026      -0.179696      -0.173339      -0.159034      -0.149205
           -0.147147

 **********************************************************************
 *SIRIUS* a direct, restricted step, second order MCSCF program       *
 **********************************************************************

 
     Date and time (Linux)  : Sat Dec 22 18:53:26 2018
     Host name              : n-62-29-8                               

 Title lines from ".mol" input file:
                                                                             
                                                                             

 Print level on unit LUPRI =   2 is   0
 Print level on unit LUW4  =   2 is  11

@    (Integral direct) CC calculation.

@    This is a combination run starting with
@              a restricted, closed shell Hartree-Fock calculation


 Initial molecular orbitals are obtained according to
 ".MOSTART EWMO  " input option

@    QM part is embedded in an environment :

@         Model: QMMM

     Wave function specification
     ============================

     For the specification of the Coupled Cluster: see later.

@    Wave function type        --- CC ---
@    Number of closed shell electrons          50
@    Number of electrons in active shells       0
@    Total charge of the molecule               0

@    Spin multiplicity and 2 M_S                1         0
@    Total number of symmetries                 1 (point group: C1 )
@    Reference state symmetry                   1 (irrep name : A  )

     Orbital specifications
     ======================
@    Abelian symmetry species          All |    1
@                                          |  A  
                                       --- |  ---
@    Occupied SCF orbitals              25 |   25
@    Secondary orbitals                131 |  131
@    Total number of orbitals          156 |  156
@    Number of basis functions         156 |  156

     Optimization information
     ========================
@    Number of configurations                 1
@    Number of orbital rotations           3275
     ------------------------------------------
@    Total number of variables             3276

     Maximum number of Fock   iterations      0
     Maximum number of DIIS   iterations     60
     Maximum number of QC-SCF iterations     60
     Threshold for SCF convergence     1.00D-07


 Changes of defaults for CC:
 ---------------------------


 -Implicit frozen core calculation
 -Excitation energies calculated
 -One-photon absorption strengths will be calculated
 -Oscillator strengths calculated
  
* Read MO coefficients from SIRIUS.RST with label "NEWORB  " and header info: 22Dec18  REORTHO 


 ***********************************************
 ***** DIIS acceleration of SCF iterations *****
 ***********************************************

 C1-DIIS algorithm; max error vectors =    8
 -----------------------------------------------------------------------------

 *** DIIS iteration number    1
 RDSUPM called. NFMAT, ISYMDM(1:NFMAT)                     1
                     1

Calculating AOSUPINT
     (Precalculated two-electron integrals are transformed to P-supermatrix elements.
      Threshold for discarding integrals :  1.00D-12 )
  CPU  time used in FORMSUP    is   5.65 seconds
  WALL time used in FORMSUP    is   6.44 seconds

 ITDIIS, energy, error norm, change in energy, scr.thr., difden:
@ DIIS iter.   1    -359.877415562        3.80868D+00   -3.60D+02  -20    F

 (DIIS_RED) Control Parameters C2DIIS =         F NEVC =    1


 (DIIS_RED) B matrix:

               Column   1
       1      14.50601308
    ==== End of matrix output ====

 DIIS C vector; C2DIIS = F, LAMBDA = -1.45D+01
    1.000000
* Read MO coefficients from SIRIUS.RST with label "NEWORB  " and header info: 22Dec18  DIIS   1
      Virial theorem: -V/T =      1.998214
@      MULPOP N      -0.35; H       0.16; H       0.17; H       0.17; O      -0.61; O      -0.84; O      -0.67; O      -0.65; H       0.32; H       0.32; 
@             H       0.32; H       0.33; H       0.33; H       0.34; H       0.33; H       0.33; 
   1  Level shift: doubly occupied orbital energies shifted by -2.00D-01

 DIIS Fock eigenvalues in symmetry 1
      -20.74018      -20.71993      -20.70068      -20.55900      -16.01627
       -1.56017       -1.55256       -1.52278       -1.48978       -1.46033
       -0.96287       -0.95230       -0.93620       -0.93090       -0.91582
       -0.90274       -0.81643       -0.80255       -0.77892       -0.77194
       -0.76923       -0.75562       -0.73923       -0.70723       -0.68465
        0.07714        0.14409        0.15025        0.17769        0.19884
        0.23497        0.25400        0.26431        0.27843        0.28226
        0.33154        0.40922        0.42650        0.50293        0.51206
        0.53905        0.55044        0.58008        0.58032        0.59425
        0.60224        0.63103        0.80060        0.84165        0.84629
        0.93244        0.94657        0.95754        0.98460        0.98900
        1.01593        1.01897        1.05181        1.07059        1.09754
        1.12866        1.14225        1.18989        1.23711        1.28216
        1.30156        1.31686        1.35372        1.43870        1.44595
        1.45135        1.46540        1.46708        1.49816        1.51278
        1.55434        1.64671        1.66070        1.66754        1.67064
        1.68670        1.70245        1.77235        1.82374        1.83443
        1.83880        1.85955        1.87131        1.92128        2.01185
        2.05291        2.15931        2.17067        2.17344        2.28956
        2.30364        2.31881        2.32712        2.41963        2.48897
        2.54599        2.56634        2.59777        2.62142        2.64142
        2.65234        2.71999        2.74650        2.75829        2.76588
        2.79484        2.81411        2.91900        2.97620        3.25998
        3.31687        3.40255        3.40643        3.41667        3.45250
        3.46015        3.47275        3.48804        3.61102        3.61934
        3.62083        3.62630        3.66763        3.92391        3.95944
        3.96734        4.09534        4.17081        4.17180        4.20021
        4.22664        4.48361        4.88845        4.98770        5.29748
        5.30317        5.36119        5.41642        5.68313        5.71178
        5.73502        5.76248        6.02823        6.03433        6.09993
        6.34479       36.73255       51.52082       51.54380       51.55832
       51.76217
 Time used in FCKEIG, thr_jaco:   4.15D-01  4.20D-02  1.66D-04
 CPU and wall times used in FCKEIG, THR_FCKEIG:   4.15D-01  4.20D-02  3.81D-02
 -----------------------------------------------------------------------------

 *** DIIS iteration number    2
 RDSUPM called. NFMAT, ISYMDM(1:NFMAT)                     1
                     1

 ITDIIS, energy, error norm, change in energy, scr.thr., difden:
@ DIIS iter.   2    -360.668579466        9.25387D-01   -7.91D-01  -20    F

 (DIIS_RED) Control Parameters C2DIIS =         F NEVC =    2


 (DIIS_RED) B matrix:

               Column   1     Column   2
       1      14.50601308
       2       0.90261069     0.85634093
    ==== End of matrix output ====

 DIIS C vector; C2DIIS = F, LAMBDA = -8.56D-01
   -0.003413    1.003413
* Read MO coefficients from SIRIUS.RST with label "NEWORB  " and header info: 22Dec18  DIIS   2
      Virial theorem: -V/T =      2.004093
@      MULPOP N      -0.63; H       0.23; H       0.23; H       0.21; O      -0.60; O      -0.67; O      -0.58; O      -0.60; H       0.31; H       0.32; 
@             H       0.25; H       0.33; H       0.31; H       0.28; H       0.31; H       0.30; 
   2  Level shift: doubly occupied orbital energies shifted by -5.00D-02

 DIIS Fock eigenvalues in symmetry 1
      -20.66520      -20.63792      -20.63115      -20.62790      -15.50279
       -1.39984       -1.39649       -1.39356       -1.37154       -1.16959
       -0.78768       -0.76231       -0.74849       -0.73184       -0.67513
       -0.65957       -0.64825       -0.64217       -0.63792       -0.62511
       -0.58904       -0.58828       -0.58655       -0.57402       -0.48287
        0.13030        0.18602        0.18693        0.19385        0.23256
        0.27007        0.27530        0.28903        0.30141        0.33457
        0.35649        0.47384        0.49128        0.53836        0.55276
        0.57332        0.59598        0.61153        0.62401        0.62519
        0.64063        0.70037        0.90229        0.91555        0.94539
        0.95634        0.96081        0.97133        0.99335        1.00322
        1.01659        1.06067        1.07548        1.08638        1.10730
        1.14003        1.15697        1.28814        1.30889        1.31863
        1.33808        1.36994        1.38809        1.47916        1.49795
        1.50770        1.52237        1.52979        1.53312        1.55080
        1.60433        1.67464        1.71985        1.72360        1.72635
        1.74391        1.79620        1.83337        1.88665        1.89188
        1.90998        1.93465        1.94962        1.99684        2.12805
        2.17212        2.21130        2.21827        2.22797        2.34272
        2.34870        2.36940        2.38897        2.53109        2.55666
        2.61077        2.63081        2.65848        2.66537        2.72403
        2.73717        2.78477        2.81368        2.82092        2.84846
        2.93442        2.96541        3.04362        3.11984        3.39589
        3.42228        3.43116        3.43411        3.45500        3.48128
        3.48785        3.50490        3.50805        3.56353        3.61881
        3.63853        3.65223        3.65564        3.95446        3.97369
        3.98725        4.07757        4.17623        4.18486        4.19502
        4.22796        4.66174        5.12006        5.21605        5.28891
        5.29338        5.31619        5.34797        5.64397        5.66876
        5.70595        5.74957        6.03761        6.05380        6.11113
        6.25582       37.08994       51.46948       51.48181       51.49324
       51.51224
 Time used in FCKEIG, thr_jaco:   3.16D-01  3.20D-02  4.04D-05
 CPU and wall times used in FCKEIG, THR_FCKEIG:   3.16D-01  3.20D-02  9.25D-03
 -----------------------------------------------------------------------------

 *** DIIS iteration number    3
 RDSUPM called. NFMAT, ISYMDM(1:NFMAT)                     1
                     1

 ITDIIS, energy, error norm, change in energy, scr.thr., difden:
@ DIIS iter.   3    -360.728130739        3.39479D-01   -5.96D-02  -20    F

 (DIIS_RED) Control Parameters C2DIIS =         F NEVC =    3


 (DIIS_RED) B matrix:

               Column   1     Column   2     Column   3
       1      14.50601308
       2       0.90261069     0.85634093
       3       0.61685427     0.05810453     0.11524616
    ==== End of matrix output ====

 DIIS C vector; C2DIIS = F, LAMBDA = -9.07D-02
   -0.039586    0.082672    0.956914
* Read MO coefficients from SIRIUS.RST with label "NEWORB  " and header info: 22Dec18  DIIS   3
      Virial theorem: -V/T =      2.001901
@      MULPOP N      -0.55; H       0.19; H       0.21; H       0.18; O      -0.66; O      -0.74; O      -0.63; O      -0.66; H       0.33; H       0.35; 
@             H       0.30; H       0.37; H       0.34; H       0.30; H       0.35; H       0.33; 
   3  Level shift: doubly occupied orbital energies shifted by -2.50D-02

 DIIS Fock eigenvalues in symmetry 1
      -20.57792      -20.57180      -20.55729      -20.51509      -15.61357
       -1.35835       -1.35591       -1.33476       -1.32967       -1.18196
       -0.73297       -0.72142       -0.71166       -0.68994       -0.67149
       -0.64987       -0.61395       -0.60569       -0.58031       -0.57557
       -0.54523       -0.53711       -0.52362       -0.51535       -0.48038
        0.13271        0.18912        0.18967        0.19855        0.23399
        0.27200        0.27742        0.29149        0.30542        0.33308
        0.35888        0.47145        0.48866        0.54742        0.56229
        0.58244        0.60438        0.62241        0.63030        0.63363
        0.64941        0.69961        0.89650        0.91494        0.93641
        0.96886        0.98159        0.98927        1.00685        1.01387
        1.03165        1.06472        1.08717        1.10007        1.12091
        1.15196        1.16752        1.27756        1.31544        1.33127
        1.34583        1.37136        1.39147        1.48997        1.50694
        1.51856        1.53330        1.53865        1.54509        1.56125
        1.61339        1.68977        1.72825        1.73289        1.73581
        1.75107        1.79739        1.83991        1.89628        1.90088
        1.91435        1.94111        1.95127        1.99939        2.11648
        2.15902        2.22198        2.22984        2.24094        2.36113
        2.36608        2.38082        2.40283        2.53534        2.56348
        2.61902        2.64127        2.66862        2.67778        2.72834
        2.74258        2.79337        2.82097        2.82947        2.85340
        2.91155        2.93832        3.03234        3.09812        3.40043
        3.44524        3.45046        3.45605        3.46032        3.46597
        3.50263        3.51251        3.53025        3.60998        3.66234
        3.66566        3.67325        3.67557        3.97124        3.99735
        4.00959        4.11722        4.21001        4.21643        4.22737
        4.24906        4.60994        5.06272        5.16171        5.31861
        5.33494        5.36785        5.38038        5.69980        5.71264
        5.73469        5.77129        6.06852        6.07490        6.13982
        6.32460       36.95828       51.51070       51.51522       51.53442
       51.63555
 Time used in FCKEIG, thr_jaco:   3.04D-01  3.10D-02  1.48D-05
 CPU and wall times used in FCKEIG, THR_FCKEIG:   3.04D-01  3.10D-02  3.39D-03
 -----------------------------------------------------------------------------

 *** DIIS iteration number    4
 RDSUPM called. NFMAT, ISYMDM(1:NFMAT)                     1
                     1

 ITDIIS, energy, error norm, change in energy, scr.thr., difden:
@ DIIS iter.   4    -360.736167605        1.18846D-01   -8.04D-03  -20    F

 (DIIS_RED) Control Parameters C2DIIS =         F NEVC =    4


 (DIIS_RED) B matrix:

               Column   1     Column   2     Column   3     Column   4
       1      14.50601308
       2       0.90261069     0.85634093
       3       0.61685427     0.05810453     0.11524616
       4      -0.00790700     0.08208810    -0.00921862     0.01412429
    ==== End of matrix output ====

 DIIS C vector; C2DIIS = F, LAMBDA = -3.92D-03
    0.000085   -0.096185    0.157140    0.938961
* Read MO coefficients from SIRIUS.RST with label "NEWORB  " and header info: 22Dec18  DIIS   4
      Virial theorem: -V/T =      2.002770
@      MULPOP N      -0.62; H       0.21; H       0.23; H       0.19; O      -0.68; O      -0.72; O      -0.64; O      -0.67; H       0.34; H       0.35; 
@             H       0.29; H       0.37; H       0.35; H       0.30; H       0.35; H       0.34; 
   4  Level shift: doubly occupied orbital energies shifted by -1.25D-02

 DIIS Fock eigenvalues in symmetry 1
      -20.57456      -20.56983      -20.55819      -20.54002      -15.56562
       -1.35051       -1.34775       -1.33438       -1.32266       -1.15876
       -0.72834       -0.71232       -0.70303       -0.68172       -0.65000
       -0.62824       -0.60365       -0.59489       -0.57127       -0.57025
       -0.53352       -0.52531       -0.51274       -0.51072       -0.45862
        0.13272        0.18786        0.18942        0.19689        0.23410
        0.27216        0.27717        0.29128        0.30510        0.33522
        0.35970        0.47473        0.49225        0.54641        0.56132
        0.58102        0.60487        0.62009        0.62787        0.63139
        0.64784        0.70224        0.90229        0.91821        0.94213
        0.96803        0.97969        0.98778        1.00487        1.01332
        1.03042        1.06558        1.08594        1.09765        1.11855
        1.14909        1.16611        1.28316        1.31460        1.32891
        1.34565        1.37390        1.39217        1.48886        1.50471
        1.51660        1.53069        1.53570        1.54290        1.55938
        1.61230        1.68781        1.72601        1.73140        1.73387
        1.75061        1.80029        1.84052        1.89486        1.89869
        1.91565        1.93883        1.95427        2.00158        2.12324
        2.16566        2.21856        2.22666        2.23880        2.35680
        2.36075        2.37699        2.39978        2.53842        2.56490
        2.61611        2.63965        2.66640        2.67533        2.73049
        2.74424        2.79239        2.82109        2.82773        2.85188
        2.92155        2.94931        3.03911        3.10677        3.41017
        3.44244        3.44526        3.45205        3.45670        3.47708
        3.50037        3.50827        3.52733        3.59917        3.65430
        3.65954        3.67004        3.67238        3.96775        3.99305
        4.00648        4.10894        4.20561        4.21186        4.21818
        4.24557        4.62601        5.08078        5.17927        5.31335
        5.33000        5.34865        5.37278        5.69248        5.69552
        5.72958        5.76612        6.06119        6.06936        6.13422
        6.30644       36.99307       51.50129       51.50260       51.52418
       51.59886
 Time used in FCKEIG, thr_jaco:   2.67D-01  2.60D-02  5.19D-06
 CPU and wall times used in FCKEIG, THR_FCKEIG:   2.67D-01  2.60D-02  1.19D-03
 -----------------------------------------------------------------------------

 *** DIIS iteration number    5
 RDSUPM called. NFMAT, ISYMDM(1:NFMAT)                     1
                     1

 ITDIIS, energy, error norm, change in energy, scr.thr., difden:
@ DIIS iter.   5    -360.737300959        2.33454D-02   -1.13D-03  -20    F

 (DIIS_RED) Control Parameters C2DIIS =         F NEVC =    5


 (DIIS_RED) B matrix:

               Column   1     Column   2     Column   3     Column   4     Column   5
       1      14.50601308
       2       0.90261069     0.85634093
       3       0.61685427     0.05810453     0.11524616
       4      -0.00790700     0.08208810    -0.00921862     0.01412429
       5       0.01227666     0.00642679     0.00468565     0.00087947     0.00054501
    ==== End of matrix output ====

 DIIS C vector; C2DIIS = F, LAMBDA = -2.62D-04
    0.001356    0.010759   -0.073840   -0.167962    1.229687
* Read MO coefficients from SIRIUS.RST with label "NEWORB  " and header info: 22Dec18  DIIS   5
      Virial theorem: -V/T =      2.002413
@      MULPOP N      -0.61; H       0.21; H       0.22; H       0.19; O      -0.69; O      -0.74; O      -0.65; O      -0.68; H       0.35; H       0.36; 
@             H       0.30; H       0.38; H       0.36; H       0.31; H       0.36; H       0.34; 

 DIIS Fock eigenvalues in symmetry 1
      -20.56104      -20.55613      -20.54370      -20.52273      -15.55075
       -1.33788       -1.33474       -1.32029       -1.30953       -1.14585
       -0.71528       -0.69985       -0.69098       -0.66919       -0.63738
       -0.61535       -0.59148       -0.58226       -0.55874       -0.55637
       -0.51997       -0.51148       -0.49844       -0.49600       -0.44545
        0.13254        0.18745        0.18927        0.19680        0.23390
        0.27200        0.27703        0.29106        0.30502        0.33532
        0.35970        0.47459        0.49213        0.54629        0.56118
        0.58076        0.60484        0.62012        0.62728        0.63116
        0.64770        0.70230        0.90284        0.91853        0.94236
        0.96854        0.98066        0.98866        1.00575        1.01359
        1.03129        1.06572        1.08612        1.09788        1.11860
        1.14939        1.16612        1.28326        1.31455        1.32915
        1.34587        1.37413        1.39225        1.48910        1.50416
        1.51629        1.53021        1.53485        1.54287        1.55922
        1.61218        1.68791        1.72536        1.73115        1.73344
        1.75050        1.80008        1.84041        1.89450        1.89807
        1.91565        1.93786        1.95424        2.00149        2.12323
        2.16562        2.21775        2.22611        2.23850        2.35667
        2.36076        2.37623        2.39947        2.53838        2.56495
        2.61510        2.63925        2.66574        2.67507        2.73020
        2.74402        2.79186        2.82060        2.82699        2.85084
        2.92170        2.94946        3.03934        3.10697        3.41095
        3.44297        3.44623        3.45271        3.45725        3.47748
        3.50038        3.50879        3.52769        3.60067        3.65572
        3.66018        3.67002        3.67283        3.96772        3.99354
        4.00683        4.11036        4.20627        4.21255        4.21929
        4.24578        4.62701        5.08163        5.18009        5.31427
        5.33071        5.35147        5.37413        5.69371        5.69770
        5.73022        5.76645        6.06194        6.06942        6.13464
        6.30862       36.99539       51.50256       51.50429       51.52535
       51.60356
 Time used in FCKEIG, thr_jaco:   2.70D-01  2.70D-02  1.02D-06
 CPU and wall times used in FCKEIG, THR_FCKEIG:   2.71D-01  2.70D-02  2.33D-04
 -----------------------------------------------------------------------------

 *** DIIS iteration number    6
 RDSUPM called. NFMAT, ISYMDM(1:NFMAT)                     1
                     1

 ITDIIS, energy, error norm, change in energy, scr.thr., difden:
@ DIIS iter.   6    -360.737385221        6.63203D-03   -8.43D-05  -20    F

 (DIIS_RED) Control Parameters C2DIIS =         F NEVC =    6


 (DIIS_RED) B matrix:

               Column   1     Column   2     Column   3     Column   4     Column   5     Column   6
       1      14.50601308
       2       0.90261069     0.85634093
       3       0.61685427     0.05810453     0.11524616
       4      -0.00790700     0.08208810    -0.00921862     0.01412429
       5       0.01227666     0.00642679     0.00468565     0.00087947     0.00054501
       6      -0.00222677    -0.00035387     0.00042696     0.00014968     0.00007081     0.00004398
    ==== End of matrix output ====

 DIIS C vector; C2DIIS = F, LAMBDA = -2.91D-05
    0.000379    0.006846   -0.018202   -0.065985    0.100296    0.976666
* Read MO coefficients from SIRIUS.RST with label "NEWORB  " and header info: 22Dec18  DIIS   6
      Virial theorem: -V/T =      2.002532
@      MULPOP N      -0.60; H       0.21; H       0.22; H       0.19; O      -0.69; O      -0.74; O      -0.66; O      -0.68; H       0.35; H       0.36; 
@             H       0.30; H       0.38; H       0.36; H       0.31; H       0.36; H       0.34; 

 DIIS Fock eigenvalues in symmetry 1
      -20.56173      -20.55634      -20.54466      -20.52458      -15.55370
       -1.33807       -1.33472       -1.32078       -1.30979       -1.14681
       -0.71585       -0.69997       -0.69129       -0.66953       -0.63824
       -0.61614       -0.59190       -0.58246       -0.55922       -0.55695
       -0.52003       -0.51135       -0.49859       -0.49630       -0.44635
        0.13240        0.18731        0.18915        0.19670        0.23375
        0.27189        0.27690        0.29094        0.30495        0.33511
        0.35953        0.47427        0.49178        0.54624        0.56101
        0.58061        0.60455        0.61990        0.62708        0.63096
        0.64760        0.70198        0.90226        0.91815        0.94178
        0.96840        0.98052        0.98860        1.00541        1.01328
        1.03107        1.06546        1.08595        1.09765        1.11838
        1.14906        1.16597        1.28271        1.31427        1.32901
        1.34568        1.37368        1.39198        1.48877        1.50395
        1.51617        1.52998        1.53459        1.54261        1.55897
        1.61203        1.68767        1.72513        1.73098        1.73322
        1.75020        1.79970        1.84012        1.89439        1.89786
        1.91527        1.93760        1.95387        2.00113        2.12260
        2.16496        2.21746        2.22581        2.23837        2.35635
        2.36042        2.37596        2.39931        2.53797        2.56453
        2.61483        2.63909        2.66548        2.67484        2.72987
        2.74373        2.79168        2.82037        2.82674        2.85052
        2.92082        2.94852        3.03861        3.10616        3.40992
        3.44293        3.44570        3.45237        3.45673        3.47644
        3.50000        3.50844        3.52764        3.60007        3.65521
        3.65982        3.66975        3.67275        3.96742        3.99318
        4.00676        4.10966        4.20590        4.21225        4.21884
        4.24556        4.62548        5.08008        5.17857        5.31422
        5.33030        5.35053        5.37361        5.69313        5.69681
        5.73010        5.76603        6.06140        6.06899        6.13451
        6.30767       36.99250       51.50182       51.50339       51.52515
       51.60174
 Time used in FCKEIG, thr_jaco:   2.65D-01  2.70D-02  2.90D-07
 CPU and wall times used in FCKEIG, THR_FCKEIG:   2.65D-01  2.70D-02  6.63D-05
 -----------------------------------------------------------------------------

 *** DIIS iteration number    7
 RDSUPM called. NFMAT, ISYMDM(1:NFMAT)                     1
                     1

 ITDIIS, energy, error norm, change in energy, scr.thr., difden:
@ DIIS iter.   7    -360.737390015        2.44250D-03   -4.79D-06  -20    F

 (DIIS_RED) Control Parameters C2DIIS =         F NEVC =    7


 (DIIS_RED) B matrix:

               Column   1     Column   2     Column   3     Column   4     Column   5     Column   6
       1      14.50601308
       2       0.90261069     0.85634093
       3       0.61685427     0.05810453     0.11524616
       4      -0.00790700     0.08208810    -0.00921862     0.01412429
       5       0.01227666     0.00642679     0.00468565     0.00087947     0.00054501
       6      -0.00222677    -0.00035387     0.00042696     0.00014968     0.00007081     0.00004398
       7       0.00096930     0.00003811     0.00005893     0.00000033     0.00002983    -0.00000070

               Column   7
       7       0.00000597
    ==== End of matrix output ====

 DIIS C vector; C2DIIS = F, LAMBDA = -1.24D-06
   -0.000220   -0.001521    0.009934    0.024687   -0.171094    0.115914    1.022299
* Read MO coefficients from SIRIUS.RST with label "NEWORB  " and header info: 22Dec18  DIIS   7
      Virial theorem: -V/T =      2.002501
@      MULPOP N      -0.60; H       0.21; H       0.22; H       0.19; O      -0.69; O      -0.74; O      -0.66; O      -0.69; H       0.35; H       0.36; 
@             H       0.30; H       0.38; H       0.36; H       0.31; H       0.36; H       0.34; 

 DIIS Fock eigenvalues in symmetry 1
      -20.56156      -20.55628      -20.54435      -20.52392      -15.55298
       -1.33799       -1.33465       -1.32049       -1.30966       -1.14657
       -0.71564       -0.69994       -0.69125       -0.66946       -0.63809
       -0.61598       -0.59191       -0.58247       -0.55920       -0.55673
       -0.51991       -0.51127       -0.49838       -0.49602       -0.44612
        0.13243        0.18732        0.18918        0.19675        0.23378
        0.27190        0.27693        0.29096        0.30496        0.33516
        0.35961        0.47435        0.49187        0.54627        0.56106
        0.58065        0.60466        0.61998        0.62709        0.63099
        0.64762        0.70205        0.90241        0.91824        0.94191
        0.96847        0.98064        0.98868        1.00556        1.01334
        1.03119        1.06553        1.08602        1.09775        1.11845
        1.14918        1.16602        1.28286        1.31435        1.32909
        1.34575        1.37380        1.39205        1.48891        1.50396
        1.51618        1.52997        1.53459        1.54270        1.55902
        1.61207        1.68780        1.72514        1.73101        1.73323
        1.75029        1.79974        1.84023        1.89440        1.89785
        1.91536        1.93759        1.95394        2.00124        2.12272
        2.16508        2.21747        2.22584        2.23839        2.35641
        2.36050        2.37596        2.39932        2.53804        2.56467
        2.61482        2.63911        2.66549        2.67493        2.72990
        2.74379        2.79169        2.82041        2.82674        2.85051
        2.92102        2.94872        3.03879        3.10632        3.41020
        3.44298        3.44590        3.45250        3.45690        3.47668
        3.50009        3.50856        3.52769        3.60036        3.65547
        3.65997        3.66983        3.67281        3.96749        3.99330
        4.00681        4.10996        4.20605        4.21239        4.21906
        4.24565        4.62588        5.08043        5.17892        5.31428
        5.33043        5.35093        5.37381        5.69334        5.69717
        5.73016        5.76614        6.06157        6.06909        6.13457
        6.30806       36.99319       51.50201       51.50367       51.52521
       51.60239
 Time used in FCKEIG, thr_jaco:   2.56D-01  2.50D-02  1.07D-07
 CPU and wall times used in FCKEIG, THR_FCKEIG:   2.56D-01  2.50D-02  2.44D-05
 -----------------------------------------------------------------------------

 *** DIIS iteration number    8
 RDSUPM called. NFMAT, ISYMDM(1:NFMAT)                     1
                     1

 ITDIIS, energy, error norm, change in energy, scr.thr., difden:
@ DIIS iter.   8    -360.737390532        3.54317D-04   -5.16D-07  -20    F

 (DIIS_RED) Control Parameters C2DIIS =         F NEVC =    8


 (DIIS_RED) B matrix:

               Column   1     Column   2     Column   3     Column   4     Column   5     Column   6
       1      14.50601308
       2       0.90261069     0.85634093
       3       0.61685427     0.05810453     0.11524616
       4      -0.00790700     0.08208810    -0.00921862     0.01412429
       5       0.01227666     0.00642679     0.00468565     0.00087947     0.00054501
       6      -0.00222677    -0.00035387     0.00042696     0.00014968     0.00007081     0.00004398
       7       0.00096930     0.00003811     0.00005893     0.00000033     0.00002983    -0.00000070
       8      -0.00004458     0.00000282    -0.00000727     0.00000526     0.00000085     0.00000129

               Column   7     Column   8
       7       0.00000597
       8       0.00000016     0.00000013
    ==== End of matrix output ====

 DIIS C vector; C2DIIS = F, LAMBDA = -7.09D-08
    0.000014    0.000034   -0.000724   -0.001780    0.020119   -0.052468   -0.120636    1.155442
* Read MO coefficients from SIRIUS.RST with label "NEWORB  " and header info: 22Dec18  DIIS   8
      Virial theorem: -V/T =      2.002520
@      MULPOP N      -0.60; H       0.21; H       0.22; H       0.19; O      -0.69; O      -0.74; O      -0.66; O      -0.69; H       0.35; H       0.36; 
@             H       0.30; H       0.38; H       0.36; H       0.31; H       0.36; H       0.34; 

 DIIS Fock eigenvalues in symmetry 1
      -20.56158      -20.55627      -20.54441      -20.52394      -15.55302
       -1.33799       -1.33465       -1.32050       -1.30968       -1.14658
       -0.71564       -0.69993       -0.69125       -0.66947       -0.63809
       -0.61598       -0.59193       -0.58248       -0.55925       -0.55675
       -0.51991       -0.51126       -0.49839       -0.49603       -0.44615
        0.13243        0.18731        0.18917        0.19675        0.23377
        0.27190        0.27692        0.29095        0.30496        0.33516
        0.35960        0.47434        0.49186        0.54627        0.56105
        0.58064        0.60465        0.61998        0.62709        0.63098
        0.64762        0.70205        0.90240        0.91824        0.94190
        0.96847        0.98063        0.98868        1.00555        1.01331
        1.03119        1.06552        1.08601        1.09774        1.11844
        1.14918        1.16602        1.28285        1.31434        1.32908
        1.34574        1.37379        1.39204        1.48890        1.50395
        1.51617        1.52996        1.53458        1.54269        1.55901
        1.61207        1.68779        1.72513        1.73101        1.73322
        1.75028        1.79973        1.84022        1.89440        1.89784
        1.91535        1.93758        1.95393        2.00123        2.12270
        2.16507        2.21745        2.22582        2.23839        2.35640
        2.36050        2.37595        2.39932        2.53803        2.56465
        2.61481        2.63911        2.66547        2.67493        2.72989
        2.74378        2.79169        2.82040        2.82673        2.85051
        2.92100        2.94871        3.03878        3.10631        3.41018
        3.44298        3.44589        3.45247        3.45688        3.47667
[...]

 Principal values of diagonalized transition strength matrix:

             a.u.               
 1      -0.00000000
 2       0.00000000
 3       0.00018834

 Principal axis of diagonalized transition strength matrix:


               Column   1     Column   2     Column   3
       1       0.75787424     0.10349947    -0.64413856
       2      -0.41712752     0.83603237    -0.35644706
       3       0.50162861     0.53882997     0.67677988
    ==== End of matrix output ====


 CCSD   oscillator strength matrix for state nr. 13 of symmetry 1
 CCSD  excitation energy:15.13805705


               Column   1     Column   2     Column   3
       1     7.886214D-04   4.364227D-04  -8.286202D-04
       2     4.364227D-04   2.414905D-04  -4.585184D-04
       3    -8.286202D-04  -4.585184D-04   8.705862D-04
    ==== End of matrix output ====

 Principal values of diagonalized oscillator strength matrix:

             a.u.               
 1      -0.00000004
 2       0.00000000
 3       0.00190073

 Principal axis of diagonalized oscillator strength matrix:


               Column   1     Column   2     Column   3
       1       0.75787424     0.10349947    -0.64413856
       2      -0.41712752     0.83603237    -0.35644706
       3       0.50162861     0.53882997     0.67677988
    ==== End of matrix output ====


 CCSD  Transition strength matrix for state nr. 14 of symmetry 1
 CCSD  excitation energy:15.24303048

 Gauge: length

               Column   1     Column   2     Column   3
       1     8.783230D-07  -6.086456D-06   8.904404D-06
       2    -6.086456D-06   4.217644D-05  -6.170241D-05
       3     8.904404D-06  -6.170241D-05   9.026513D-05
    ==== End of matrix output ====

 Principal values of diagonalized transition strength matrix:

             a.u.               
 1      -0.00000000
 2       0.00000000
 3       0.00013332

 Principal axis of diagonalized transition strength matrix:


               Column   1     Column   2     Column   3
       1      -0.21304464     0.97366504     0.08116881
       2       0.79668621     0.22120921    -0.56245673
       3       0.56559974     0.05516232     0.82283294
    ==== End of matrix output ====


 CCSD   oscillator strength matrix for state nr. 14 of symmetry 1
 CCSD  excitation energy:15.24303048


               Column   1     Column   2     Column   3
       1     8.925536D-06  -6.185069D-05   9.048674D-05
       2    -6.185069D-05   4.285979D-04  -6.270211D-04
       3     9.048674D-05  -6.270211D-04   9.172761D-04
    ==== End of matrix output ====

 Principal values of diagonalized oscillator strength matrix:

             a.u.               
 1      -0.00000001
 2      -0.00000000
 3       0.00135481

 Principal axis of diagonalized oscillator strength matrix:


               Column   1     Column   2     Column   3
       1      -0.21304464     0.97366504     0.08116881
       2       0.79668621     0.22120921    -0.56245673
       3       0.56559974     0.05516232     0.82283294
    ==== End of matrix output ====


 CCSD  Transition strength matrix for state nr. 15 of symmetry 1
 CCSD  excitation energy:15.29749905

 Gauge: length

               Column   1     Column   2     Column   3
       1     1.024773D-04   2.240682D-04  -1.542674D-04
       2     2.240682D-04   4.899283D-04  -3.373044D-04
       3    -1.542674D-04  -3.373044D-04   2.322019D-04
    ==== End of matrix output ====

 Principal values of diagonalized transition strength matrix:

             a.u.               
 1      -0.00000002
 2       0.00000000
 3       0.00082463

 Principal axis of diagonalized transition strength matrix:


               Column   1     Column   2     Column   3
       1       0.28121137     0.89255090     0.35252383
       2       0.45359975    -0.44734858     0.77079603
       3       0.84567573    -0.05685189    -0.53066037
    ==== End of matrix output ====


 CCSD   oscillator strength matrix for state nr. 15 of symmetry 1
 CCSD  excitation energy:15.29749905


               Column   1     Column   2     Column   3
       1       0.00104510     0.00228512    -0.00157327
       2       0.00228512     0.00499645    -0.00343994
       3      -0.00157327    -0.00343994     0.00236807
    ==== End of matrix output ====

 Principal values of diagonalized oscillator strength matrix:

             a.u.               
 1      -0.00000019
 2       0.00000000
 3       0.00840981

 Principal axis of diagonalized oscillator strength matrix:


               Column   1     Column   2     Column   3
       1       0.28121137     0.89255090     0.35252383
       2       0.45359975    -0.44734858     0.77079603
       3       0.84567573    -0.05685189    -0.53066037
    ==== End of matrix output ====

  Total time for    135 linear response residues:     128.81 seconds.
  

 *******************************************************************************
 *******************************************************************************
 *                                                                             *
 *                                                                             *
 *                   SUMMARY OF COUPLED CLUSTER CALCULATION                    *
 *                                                                             *
 *                                                                             *
 *******************************************************************************
 *******************************************************************************

                                                                                
                                                                                
            Total SCF   energy:                  -360.7373905494                
            Total MP2   energy:                  -361.8378287664                
            Total CCSD  energy:                  -361.8781111219                
                                                                                
                                                                                
            Total SCF   energy:                  -360.7373905494                
            Total RSTAR energy:                  -361.8781111219                
            Total CCSD  energy:                  -361.8782596140                
                                                                                
                                                                                
            Total SCF   energy:                  -360.7373905494                
            Total RSTAR energy:                  -361.8782596140                
            Total CCSD  energy:                  -361.8782609412                
                                                                                
                                                                                
            Total SCF   energy:                  -360.7373905494                
            Total RSTAR energy:                  -361.8782609412                
            Total CCSD  energy:                  -361.8782610734                
                                                                                
                                                                                
            Total SCF   energy:                  -360.7373905494                
            Total RSTAR energy:                  -361.8782610734                
            Total CCSD  energy:                  -361.8782610795                
                                                                                
                                                                                
            Total SCF   energy:                  -360.7373905494                
            Total RSTAR energy:                  -361.8782610795                
            Total CCSD  energy:                  -361.8782610798                
            CCSD Total  energy:                  -362.2479605676                
            CCSD E(QM/MM)     :                    -0.3646986465                
                                                                                
                                                                                
                                                                                
 +=============================================================================+
 |  sym. | Exci.  |        CCSD       Excitation energies            | ||T1||  |
 |(spin, |        +------------------------------------------------------------+
 | spat) |        |     Hartree    |       eV.      |     cm-1       |    %    |
 +=============================================================================+
 | ^1A   |    1   |    14.8213786  |     403.31023  |   3252916.571  |  88.14  |
 | ^1A   |    2   |    14.8665668  |     404.53986  |   3262834.228  |  88.61  |
 | ^1A   |    3   |    14.8916527  |     405.22248  |   3268339.967  |  88.66  |
 | ^1A   |    4   |    14.9711419  |     407.38549  |   3285785.819  |  88.23  |
 | ^1A   |    5   |    15.0047516  |     408.30006  |   3293162.287  |  87.82  |
 | ^1A   |    6   |    15.0243398  |     408.83308  |   3297461.413  |  87.96  |
 | ^1A   |    7   |    15.0354622  |     409.13574  |   3299902.502  |  87.91  |
 | ^1A   |    8   |    15.0676359  |     410.01123  |   3306963.796  |  88.01  |
 | ^1A   |    9   |    15.0863713  |     410.52104  |   3311075.740  |  87.91  |
 | ^1A   |   10   |    15.0916570  |     410.66488  |   3312235.823  |  87.98  |
 | ^1A   |   11   |    15.0997153  |     410.88415  |   3314004.416  |  87.83  |
 | ^1A   |   12   |    15.1218299  |     411.48592  |   3318858.004  |  87.88  |
 | ^1A   |   13   |    15.1380570  |     411.92749  |   3322419.460  |  87.85  |
 | ^1A   |   14   |    15.2430305  |     414.78396  |   3345458.464  |  87.75  |
 | ^1A   |   15   |    15.2974991  |     416.26612  |   3357412.935  |  87.90  |
 +=============================================================================+
                                                                                
                                                                                
     Total energies in Hartree:                                                 
             1 ^1A       -347.0618833360                                        
             2 ^1A       -347.0166951688                                        
             3 ^1A       -346.9916091757                                        
             4 ^1A       -346.9121200220                                        
             5 ^1A       -346.8785103617                                        
             6 ^1A       -346.8589221002                                        
             7 ^1A       -346.8477996825                                        
             8 ^1A       -346.8156260578                                        
             9 ^1A       -346.7968906625                                        
            10 ^1A       -346.7916049377                                        
            11 ^1A       -346.7835466323                                        
            12 ^1A       -346.7614320568                                        
            13 ^1A       -346.7452048722                                        
            14 ^1A       -346.6402314438                                        
            15 ^1A       -346.5857628661                                        
                                                                                
                                                                                
 +=============================================================================+
 |  sym. | Exci.  |        CCSD       Length   Gauge Oscillator Strength       |
 |(spin, |        +------------------------------------------------------------+
 | spat) |        | Dipole Strength(a.u.) | Oscillator strength  | Direction   |
 +=============================================================================+
 | ^1A   |    1   |        0.0006891      |      0.0068085       |  (Y,Z)      |
 | ^1A   |    2   |        0.0038659      |      0.0383154       |  (Y,Z)      |
 | ^1A   |    3   |        0.0037046      |      0.0367780       |  (Y,Z)      |
 | ^1A   |    4   |        0.0012237      |      0.0122134       |  (Y,Z)      |
 | ^1A   |    5   |        0.0001043      |      0.0010437       |  (Y,Z)      |
 | ^1A   |    6   |        0.0004762      |      0.0047697       |  (Y,Z)      |
 | ^1A   |    7   |        0.0004987      |      0.0049992       |  (Y,Z)      |
 | ^1A   |    8   |        0.0005174      |      0.0051976       |  (Y,Z)      |
 | ^1A   |    9   |        0.0002128      |      0.0021404       |  (Y,Z)      |
 | ^1A   |   10   |        0.0003671      |      0.0036938       |  (Y,Z)      |
 | ^1A   |   11   |        0.0001929      |      0.0019420       |  (Y,Z)      |
 | ^1A   |   12   |        0.0003691      |      0.0037215       |  (Y,Z)      |
 | ^1A   |   13   |        0.0001883      |      0.0019007       |  (Y,Z)      |
 | ^1A   |   14   |        0.0001333      |      0.0013548       |  (Y,Z)      |
 | ^1A   |   15   |        0.0008246      |      0.0084096       |  (Y,Z)      |
 +=============================================================================+

  1 a.u. =        27.21138 eV.  
  1 a.u. =    219474.62934 cm-1.
  

 *******************************************************************************
 *******************************************************************************
 *                                                                             *
 *                                                                             *
 *                      END OF COUPLED CLUSTER CALCULATION                     *
 *                                                                             *
 *                                                                             *
 *******************************************************************************
 *******************************************************************************


 CPU and wall time for CC :  574897.262  101021.319

 
     Date and time (Linux)  : Sun Dec 23 22:59:01 2018
     Host name              : n-62-29-8                               


                      .-------------------------------------.
                      | End of Coupled Cluster Section (CC) |
                      `-------------------------------------'

  Total CPU  time used in DALTON: 159 hours 52 minutes  3 seconds
  Total wall time used in DALTON:  28 hours  5 minutes 42 seconds

 
     Date and time (Linux)  : Sun Dec 23 22:59:02 2018
     Host name              : n-62-29-8                               
  

 +---------------------------------------------------------+ 
 | List of selected calculated molecular properties (a.u.) | 
 +---------------------------------------------------------+ 

  Properties are read from unit number                      4

 CCSD       properties :
 #  1 1 CCSD/MM  Ground state Energy =    -362.2479605676
 #  2 1 E_QM/MM  Ground state Energy =      -0.3646986465
 #  3 1 Sy: 1 Sp: 1 Exc:  1 E_tot:   -347.0618833360 w:     14.8213785850 E_grs:   -361.8832619210
 #  4 1 Exctot   Excited state Energy =    -347.0618833360
 #  5 1 Sy: 1 Sp: 1 Exc:  2 E_tot:   -347.0166951688 w:     14.8665667522 E_grs:   -361.8832619210
 #  6 1 Exctot   Excited state Energy =    -347.0166951688
 #  7 1 Sy: 1 Sp: 1 Exc:  3 E_tot:   -346.9916091757 w:     14.8916527453 E_grs:   -361.8832619210
 #  8 1 Exctot   Excited state Energy =    -346.9916091757
 #  9 1 Sy: 1 Sp: 1 Exc:  4 E_tot:   -346.9121200220 w:     14.9711418990 E_grs:   -361.8832619210
 # 10 1 Exctot   Excited state Energy =    -346.9121200220
 # 11 1 Sy: 1 Sp: 1 Exc:  5 E_tot:   -346.8785103617 w:     15.0047515593 E_grs:   -361.8832619210
 # 12 1 Exctot   Excited state Energy =    -346.8785103617
 # 13 1 Sy: 1 Sp: 1 Exc:  6 E_tot:   -346.8589221002 w:     15.0243398209 E_grs:   -361.8832619210
 # 14 1 Exctot   Excited state Energy =    -346.8589221002
 # 15 1 Sy: 1 Sp: 1 Exc:  7 E_tot:   -346.8477996825 w:     15.0354622385 E_grs:   -361.8832619210
 # 16 1 Exctot   Excited state Energy =    -346.8477996825
 # 17 1 Sy: 1 Sp: 1 Exc:  8 E_tot:   -346.8156260578 w:     15.0676358633 E_grs:   -361.8832619210
 # 18 1 Exctot   Excited state Energy =    -346.8156260578
 # 19 1 Sy: 1 Sp: 1 Exc:  9 E_tot:   -346.7968906625 w:     15.0863712586 E_grs:   -361.8832619210
 # 20 1 Exctot   Excited state Energy =    -346.7968906625
 # 21 1 Sy: 1 Sp: 1 Exc: 10 E_tot:   -346.7916049377 w:     15.0916569834 E_grs:   -361.8832619210
 # 22 1 Exctot   Excited state Energy =    -346.7916049377
 # 23 1 Sy: 1 Sp: 1 Exc: 11 E_tot:   -346.7835466323 w:     15.0997152887 E_grs:   -361.8832619210
 # 24 1 Exctot   Excited state Energy =    -346.7835466323
 # 25 1 Sy: 1 Sp: 1 Exc: 12 E_tot:   -346.7614320568 w:     15.1218298642 E_grs:   -361.8832619210
 # 26 1 Exctot   Excited state Energy =    -346.7614320568
 # 27 1 Sy: 1 Sp: 1 Exc: 13 E_tot:   -346.7452048722 w:     15.1380570488 E_grs:   -361.8832619210
 # 28 1 Exctot   Excited state Energy =    -346.7452048722
 # 29 1 Sy: 1 Sp: 1 Exc: 14 E_tot:   -346.6402314438 w:     15.2430304772 E_grs:   -361.8832619210
 # 30 1 Exctot   Excited state Energy =    -346.6402314438
 # 31 1 Sy: 1 Sp: 1 Exc: 15 E_tot:   -346.5857628661 w:     15.2974990550 E_grs:   -361.8832619210
 # 32 1 Exctot   Excited state Energy =    -346.5857628661
 # 33 1 |<O|XDIPLEN |i(14.821379)>| =     0.00447695
 # 35 1 |<O|XDIPLEN |i(14.866567)>| =     0.00822044
 # 37 1 |<O|XDIPLEN |i(14.891653)>| =     0.06015559
 # 39 1 |<O|XDIPLEN |i(14.971142)>| =     0.00161447
 # 41 1 |<O|XDIPLEN |i(15.004752)>| =     0.00727517
 # 43 1 |<O|XDIPLEN |i(15.024340)>| =     0.02082766
 # 45 1 |<O|XDIPLEN |i(15.035462)>| =     0.00789384
 # 47 1 |<O|XDIPLEN |i(15.067636)>| =     0.00140418
 # 49 1 |<O|XDIPLEN |i(15.086371)>| =     0.00254443
 # 51 1 |<O|XDIPLEN |i(15.091657)>| =     0.00783556
 # 53 1 |<O|XDIPLEN |i(15.099715)>| =     0.01238688
 # 55 1 |<O|XDIPLEN |i(15.121830)>| =     0.00567799
 # 57 1 |<O|XDIPLEN |i(15.138057)>| =     0.00883985
 # 59 1 |<O|XDIPLEN |i(15.243030)>| =     0.00093719
 # 61 1 |<O|XDIPLEN |i(15.297499)>| =     0.01012311
 # 63 1 |<O|YDIPLEN |i(14.821379)>| =     0.00474432
 # 65 1 |<O|YDIPLEN |i(14.866567)>| =     0.05975334
 # 67 1 |<O|YDIPLEN |i(14.891653)>| =     0.00859404
 # 69 1 |<O|YDIPLEN |i(14.971142)>| =     0.00711777
 # 71 1 |<O|YDIPLEN |i(15.004752)>| =     0.00429092
 # 73 1 |<O|YDIPLEN |i(15.024340)>| =     0.00420832
 # 75 1 |<O|YDIPLEN |i(15.035462)>| =     0.02065716
 # 77 1 |<O|YDIPLEN |i(15.067636)>| =     0.00843760
 # 79 1 |<O|YDIPLEN |i(15.086371)>| =     0.01223571
 # 81 1 |<O|YDIPLEN |i(15.091657)>| =     0.00349366
 # 83 1 |<O|YDIPLEN |i(15.099715)>| =     0.00269872
 # 85 1 |<O|YDIPLEN |i(15.121830)>| =     0.00564912
 # 87 1 |<O|YDIPLEN |i(15.138057)>| =     0.00489171
 # 89 1 |<O|YDIPLEN |i(15.243030)>| =     0.00649434
 # 91 1 |<O|YDIPLEN |i(15.297499)>| =     0.02213432
 # 93 1 |<O|ZDIPLEN |i(14.821379)>| =     0.02542645
 # 95 1 |<O|ZDIPLEN |i(14.866567)>| =     0.01509607
 # 97 1 |<O|ZDIPLEN |i(14.891653)>| =     0.00346550
 # 99 1 |<O|ZDIPLEN |i(14.971142)>| =     0.03421142
 #101 1 |<O|ZDIPLEN |i(15.004752)>| =     0.00574460
 #103 1 |<O|ZDIPLEN |i(15.024340)>| =     0.00496914
 #105 1 |<O|ZDIPLEN |i(15.035462)>| =     0.00311570
 #107 1 |<O|ZDIPLEN |i(15.067636)>| =     0.02107742
 #109 1 |<O|ZDIPLEN |i(15.086371)>| =     0.00752503
 #111 1 |<O|ZDIPLEN |i(15.091657)>| =     0.01713273
 #113 1 |<O|ZDIPLEN |i(15.099715)>| =     0.00567464
 #115 1 |<O|ZDIPLEN |i(15.121830)>| =     0.01746410
 #117 1 |<O|ZDIPLEN |i(15.138057)>| =     0.00928788
 #119 1 |<O|ZDIPLEN |i(15.243030)>| =     0.00950080
 #121 1 |<O|ZDIPLEN |i(15.297499)>| =     0.01523817

 THE_END   
