

     ************************************************************************
     *************** Dalton - An Electronic Structure Program ***************
     ************************************************************************

    This is output from DALTON release Dalton2017.alpha (2016)
         ( Web site: http://daltonprogram.org )

   ----------------------------------------------------------------------------

    NOTE:
     
    Dalton is an experimental code for the evaluation of molecular
    properties using (MC)SCF, DFT, CI, and CC wave functions.
    The authors accept no responsibility for the performance of
    the code or for the correctness of the results.
     
    The code (in whole or part) is provided under a licence and
    is not to be reproduced for further distribution without
    the written permission of the authors or their representatives.
     
    See the home page "http://daltonprogram.org" for further information.
     
    If results obtained with this code are published,
    the appropriate citations would be both of:
     
       K. Aidas, C. Angeli, K. L. Bak, V. Bakken, R. Bast,
       L. Boman, O. Christiansen, R. Cimiraglia, S. Coriani,
       P. Dahle, E. K. Dalskov, U. Ekstroem,
       T. Enevoldsen, J. J. Eriksen, P. Ettenhuber, B. Fernandez,
       L. Ferrighi, H. Fliegl, L. Frediani, K. Hald, A. Halkier,
       C. Haettig, H. Heiberg, T. Helgaker, A. C. Hennum,
       H. Hettema, E. Hjertenaes, S. Hoest, I.-M. Hoeyvik,
       M. F. Iozzi, B. Jansik, H. J. Aa. Jensen, D. Jonsson,
       P. Joergensen, J. Kauczor, S. Kirpekar,
       T. Kjaergaard, W. Klopper, S. Knecht, R. Kobayashi, H. Koch,
       J. Kongsted, A. Krapp, K. Kristensen, A. Ligabue,
       O. B. Lutnaes, J. I. Melo, K. V. Mikkelsen, R. H. Myhre,
       C. Neiss, C. B. Nielsen, P. Norman, J. Olsen,
       J. M. H. Olsen, A. Osted, M. J. Packer, F. Pawlowski,
       T. B. Pedersen, P. F. Provasi, S. Reine, Z. Rinkevicius,
       T. A. Ruden, K. Ruud, V. Rybkin, P. Salek, C. C. M. Samson,
       A. Sanchez de Meras, T. Saue, S. P. A. Sauer,
       B. Schimmelpfennig, K. Sneskov, A. H. Steindal,
       K. O. Sylvester-Hvid, P. R. Taylor, A. M. Teale,
       E. I. Tellgren, D. P. Tew, A. J. Thorvaldsen, L. Thoegersen,
       O. Vahtras, M. A. Watson, D. J. D. Wilson, M. Ziolkowski
       and H. Agren,
       "The Dalton quantum chemistry program system",
       WIREs Comput. Mol. Sci. 2014, 4:269–284 (doi: 10.1002/wcms.1172)
     
    and
     
       Dalton, a Molecular Electronic Structure Program,
       Release Dalton2017.alpha (2016), see http://daltonprogram.org
   ----------------------------------------------------------------------------

    Authors in alphabetical order (major contribution(s) in parenthesis):

  Kestutis Aidas,           Vilnius University,           Lithuania   (QM/MM)
  Celestino Angeli,         University of Ferrara,        Italy       (NEVPT2)
  Keld L. Bak,              UNI-C,                        Denmark     (AOSOPPA, non-adiabatic coupling, magnetic properties)
  Vebjoern Bakken,          University of Oslo,           Norway      (DALTON; geometry optimizer, symmetry detection)
  Radovan Bast,             UiT The Arctic U. of Norway,  Norway      (DALTON installation and execution frameworks)
  Pablo Baudin,             University of Valencia,       Spain       (Cholesky excitation energies)
  Linus Boman,              NTNU,                         Norway      (Cholesky decomposition and subsystems)
  Ove Christiansen,         Aarhus University,            Denmark     (CC module)
  Renzo Cimiraglia,         University of Ferrara,        Italy       (NEVPT2)
  Sonia Coriani,            University of Trieste,        Italy       (CC module, MCD in RESPONS)
  Janusz Cukras,            University of Trieste,        Italy       (MChD in RESPONS)
  Paal Dahle,               University of Oslo,           Norway      (Parallelization)
  Erik K. Dalskov,          UNI-C,                        Denmark     (SOPPA)
  Thomas Enevoldsen,        Univ. of Southern Denmark,    Denmark     (SOPPA)
  Janus J. Eriksen,         Aarhus University,            Denmark     (Polarizable embedding model, TDA)
  Rasmus Faber,             University of Copenhagen,     Denmark     (Vib.avg. NMR with SOPPA, parallel AO-SOPPA)
  Berta Fernandez,          U. of Santiago de Compostela, Spain       (doublet spin, ESR in RESPONS)
  Lara Ferrighi,            Aarhus University,            Denmark     (PCM Cubic response)
  Heike Fliegl,             University of Oslo,           Norway      (CCSD(R12))
  Luca Frediani,            UiT The Arctic U. of Norway,  Norway      (PCM)
  Bin Gao,                  UiT The Arctic U. of Norway,  Norway      (Gen1Int library)
  Christof Haettig,         Ruhr-University Bochum,       Germany     (CC module)
  Kasper Hald,              Aarhus University,            Denmark     (CC module)
  Asger Halkier,            Aarhus University,            Denmark     (CC module)
  Frederik Beyer Hansen,    University of Copenhagen,     Denmark     (Parallel AO-SOPPA)
  Erik D. Hedegaard,        Univ. of Southern Denmark,    Denmark     (Polarizable embedding model, QM/MM)
  Hanne Heiberg,            University of Oslo,           Norway      (geometry analysis, selected one-electron integrals)
  Trygve Helgaker,          University of Oslo,           Norway      (DALTON; ABACUS, ERI, DFT modules, London, and much more)
  Alf Christian Hennum,     University of Oslo,           Norway      (Parity violation)
  Hinne Hettema,            University of Auckland,       New Zealand (quadratic response in RESPONS; SIRIUS supersymmetry)
  Eirik Hjertenaes,         NTNU,                         Norway      (Cholesky decomposition)
  Pi A. B. Haase,           University of Copenhagen,     Denmark     (Triplet AO-SOPPA)
  Maria Francesca Iozzi,    University of Oslo,           Norway      (RPA)
  Brano Jansik              Technical Univ. of Ostrava    Czech Rep.  (DFT cubic response)
  Hans Joergen Aa. Jensen,  Univ. of Southern Denmark,    Denmark     (DALTON; SIRIUS, RESPONS, ABACUS modules, London, and much more)
  Dan Jonsson,              UiT The Arctic U. of Norway,  Norway      (cubic response in RESPONS module)
  Poul Joergensen,          Aarhus University,            Denmark     (RESPONS, ABACUS, and CC modules)
  Maciej Kaminski,          University of Warsaw,         Poland      (CPPh in RESPONS)
  Joanna Kauczor,           Linkoeping University,        Sweden      (Complex polarization propagator (CPP) module)
  Sheela Kirpekar,          Univ. of Southern Denmark,    Denmark     (Mass-velocity & Darwin integrals)
  Wim Klopper,              KIT Karlsruhe,                Germany     (R12 code in CC, SIRIUS, and ABACUS modules)
  Stefan Knecht,            ETH Zurich,                   Switzerland (Parallel CI and MCSCF)
  Rika Kobayashi,           Australian National Univ.,    Australia   (DIIS in CC, London in MCSCF)
  Henrik Koch,              NTNU,                         Norway      (CC module, Cholesky decomposition)
  Jacob Kongsted,           Univ. of Southern Denmark,    Denmark     (Polarizable embedding model, QM/MM)
  Andrea Ligabue,           University of Modena,         Italy       (CTOCD, AOSOPPA)
  Nanna H. List             Univ. of Southern Denmark,    Denmark     (Polarizable embedding model)
  Ola B. Lutnaes,           University of Oslo,           Norway      (DFT Hessian)
  Juan I. Melo,             University of Buenos Aires,   Argentina   (LRESC, Relativistic Effects on NMR Shieldings)
  Kurt V. Mikkelsen,        University of Copenhagen,     Denmark     (MC-SCRF and QM/MM)
  Rolf H. Myhre,            NTNU,                         Norway      (Cholesky, subsystems and ECC2)
  Christian Neiss,          Univ. Erlangen-Nuernberg,     Germany     (CCSD(R12))
  Christian B. Nielsen,     University of Copenhagen,     Denmark     (QM/MM)
  Patrick Norman,           Linkoeping University,        Sweden      (Cubic response and complex frequency response in RESPONS)
  Jeppe Olsen,              Aarhus University,            Denmark     (SIRIUS CI/density modules)
  Jogvan Magnus H. Olsen,   Univ. of Southern Denmark,    Denmark     (Polarizable embedding model, QM/MM)
  Anders Osted,             Copenhagen University,        Denmark     (QM/MM)
  Martin J. Packer,         University of Sheffield,      UK          (SOPPA)
  Filip Pawlowski,          Kazimierz Wielki University,  Poland      (CC3)
  Morten N. Pedersen,       Univ. of Southern Denmark,    Denmark     (Polarizable embedding model)
  Thomas B. Pedersen,       University of Oslo,           Norway      (Cholesky decomposition)
  Patricio F. Provasi,      University of Northeastern,   Argentina   (Analysis of coupling constants in localized orbitals)
  Zilvinas Rinkevicius,     KTH Stockholm,                Sweden      (open-shell DFT, ESR)
  Elias Rudberg,            KTH Stockholm,                Sweden      (DFT grid and basis info)
  Torgeir A. Ruden,         University of Oslo,           Norway      (Numerical derivatives in ABACUS)
  Kenneth Ruud,             UiT The Arctic U. of Norway,  Norway      (DALTON; ABACUS magnetic properties and much more)
  Pawel Salek,              KTH Stockholm,                Sweden      (DALTON; DFT code)
  Claire C. M. Samson       University of Karlsruhe       Germany     (Boys localization, r12 integrals in ERI)
  Alfredo Sanchez de Meras, University of Valencia,       Spain       (CC module, Cholesky decomposition)
  Trond Saue,               Paul Sabatier University,     France      (direct Fock matrix construction)
  Stephan P. A. Sauer,      University of Copenhagen,     Denmark     (SOPPA(CCSD), SOPPA prop., AOSOPPA, vibrational g-factors)
  Bernd Schimmelpfennig,    Forschungszentrum Karlsruhe,  Germany     (AMFI module)
  Kristian Sneskov,         Aarhus University,            Denmark     (Polarizable embedding model, QM/MM)
  Arnfinn H. Steindal,      UiT The Arctic U. of Norway,  Norway      (parallel QM/MM, Polarizable embedding model)
  Casper Steinmann,         Univ. of Southern Denmark,    Denmark     (QFIT, Polarizable embedding model)
  K. O. Sylvester-Hvid,     University of Copenhagen,     Denmark     (MC-SCRF)
  Peter R. Taylor,          VLSCI/Univ. of Melbourne,     Australia   (Symmetry handling ABACUS, integral transformation)
  Andrew M. Teale,          University of Nottingham,     England     (DFT-AC, DFT-D)
  David P. Tew,             University of Bristol,        England     (CCSD(R12))
  Olav Vahtras,             KTH Stockholm,                Sweden      (triplet response, spin-orbit, ESR, TDDFT, open-shell DFT)
  David J. Wilson,          La Trobe University,          Australia   (DFT Hessian and DFT magnetizabilities)
  Hans Agren,               KTH Stockholm,                Sweden      (SIRIUS module, RESPONS, MC-SCRF solvation model)
 --------------------------------------------------------------------------------

     Date and time (Linux)  : Sat Dec 29 19:45:58 2018
     Host name              : n-62-29-6                               

 * Work memory size             :  1280000000 =  9.537 gigabytes.

 * Directories for basis set searches:
   1) /zhome/37/3/129401/NH3NH4/CCSD/AIMD_SAMPLING/nh3_4h2o_nd
   2) /zhome/9a/4/124800/source/dalton/build-mlcc/basis


Compilation information
-----------------------

 Who compiled             | rfaber
 Host                     | hpclogin1
 System                   | Linux-2.6.32-696.1.1.el6.x86_64
 CMake generator          | Unix Makefiles
 Processor                | x86_64
 64-bit integers          | ON
 MPI                      | OFF
 Fortran compiler         | /opt/intel/2016update2/compilers_and_libraries_201
                          | 6.2.181/linux/bin/intel64/ifort
 Fortran compiler version | ifort (IFORT) 16.0.2 20160204
 C compiler               | /opt/intel/2016update2/compilers_and_libraries_201
                          | 6.2.181/linux/bin/intel64/icc
 C compiler version       | icc (ICC) 16.0.2 20160204
 C++ compiler             | /opt/intel/2016update2/compilers_and_libraries_201
                          | 6.2.181/linux/bin/intel64/icpc
 C++ compiler version     | icpc (ICC) 16.0.2 20160204
 Static linking           | OFF
 Last Git revision        | bb4d1599ca5680a9f3980451fc8bbefdba436d59
 Git branch               | mlcc
 Configuration time       | 2017-06-13 16:11:03.928841


   Content of the .dal input file
 ----------------------------------

**DALTON
.RUN WAVE FUNCTIONS
*QMMM
.QMMM
**INTEGRALS
.DIPLEN
**WAVE FUNCTIONS
.CC
*PRINT
!To check the origin of excit
.PRINTL
   0 11
*SCF INP
.THRESH
1.0D-7
*CC INP
.CCSD
.THRLEQ
 1.0D-9
.THRENR
 1.0D-10
.FROIMP
4
0
.PRINT
 1
.MAX IT
 1200
.MAXRED
 1200
.MXLRV
1199
*CCSLV
.CCMM
.MXSLIT
200
.MXINIT
4 5
*CCEXCI
.NCCEXC
 15
.CVSEPARA
1
1
*CCLRSD
.DIPOLE
**END OF DALTON INPUT


   Content of the .mol file
 ----------------------------

ATOMBASIS


Atomtypes=4 Charge=0 Nosymm Angstrom
   7.00000    1    Basis=6-311G**
N          0.000000        0.000000        0.000000
   1.00000    3    Basis=6-311G**
H         -0.823005        0.068918        0.589457
H         -0.019145       -0.906340       -0.380941
H          0.708983        0.033702        0.661976
   8.00000    4    Basis=6-311G**
O          0.317549       -1.352590       -3.006897
O          2.240977        1.585725        2.003654
O         -1.479052       -0.175355        2.986800
O         -0.404013        2.011057       -1.811014
   1.00000    8    Basis=6-311G**
H          0.168217       -1.285419       -3.983150
H         -0.417287       -1.921644       -2.609684
H          1.379408        1.682227        2.397193
H          2.899060        2.038190        2.575621
H         -0.944395        0.579337        3.300408
H         -2.048141        0.245720        2.303379
H          0.192828        1.929792       -2.595889
H         -0.082610        1.381116       -1.120526


       *******************************************************************
       *********** Output from DALTON general input processing ***********
       *******************************************************************

 --------------------------------------------------------------------------------
   Overall default print level:    0
   Print level for DALTON.STAT:    1

    HERMIT 1- and 2-electron integral sections will be executed
    "Old" integral transformation used (limited to max 255 basis functions)
    Wave function sections will be executed (SIRIUS module)
 --------------------------------------------------------------------------------


 Changes of defaults for *QMMM  :
 --------------------------------

 +------------------+
 |  WORD: | CHANGE: |
 +------------------+
 |   QMMM |       T |
 +------------------+
 


   ****************************************************************************
   *************** Output of molecule and basis set information ***************
   ****************************************************************************


    The two title cards from your ".mol" input:
    ------------------------------------------------------------------------
 1:                                                                         
 2:                                                                         
    ------------------------------------------------------------------------

  Coordinates are entered in Angstrom and converted to atomic units.
          - Conversion factor : 1 bohr = 0.52917721 A

  Atomic type no.    1
  --------------------
  Nuclear charge:   7.00000
  Number of symmetry independent centers:    1
  Number of basis sets to read;    2
  The basis set is "6-311G**" from the basis set library.
  Basis set file used for this atomic type with Z =   7 :
     "/zhome/9a/4/124800/source/dalton/build-mlcc/basis/6-311G**"

  Info about the basis set file: your basis has no documentation.
  Basis set: 6-311G**                                                                        

  Atomic type no.    2
  --------------------
  Nuclear charge:   1.00000
  Number of symmetry independent centers:    3
  Number of basis sets to read;    2
  The basis set is "6-311G**" from the basis set library.
  Basis set file used for this atomic type with Z =   1 :
     "/zhome/9a/4/124800/source/dalton/build-mlcc/basis/6-311G**"

  Info about the basis set file: your basis has no documentation.
  Basis set: 6-311G**                                                                        

  Atomic type no.    3
  --------------------
  Nuclear charge:   8.00000
  Number of symmetry independent centers:    4
  Number of basis sets to read;    2
  The basis set is "6-311G**" from the basis set library.
  Basis set file used for this atomic type with Z =   8 :
     "/zhome/9a/4/124800/source/dalton/build-mlcc/basis/6-311G**"

  Info about the basis set file: your basis has no documentation.
  Basis set: 6-311G**                                                                        

  Atomic type no.    4
  --------------------
  Nuclear charge:   1.00000
  Number of symmetry independent centers:    8
  Number of basis sets to read;    2
  The basis set is "6-311G**" from the basis set library.
  Basis set file used for this atomic type with Z =   1 :
     "/zhome/9a/4/124800/source/dalton/build-mlcc/basis/6-311G**"

  Info about the basis set file: your basis has no documentation.
  Basis set: 6-311G**                                                                        


                         SYMGRP: Point group information
                         -------------------------------

@    Point group: C1 


                                 Isotopic Masses
                                 ---------------

                           N          14.003074
                           H           1.007825
                           H           1.007825
                           H           1.007825
                           O          15.994915
                           O          15.994915
                           O          15.994915
                           O          15.994915
                           H           1.007825
                           H           1.007825
                           H           1.007825
                           H           1.007825
                           H           1.007825
                           H           1.007825
                           H           1.007825
                           H           1.007825

                       Total mass:    89.068809 amu
                       Natural abundance:  98.514 %

 Center-of-mass coordinates (a.u.):    0.250902    0.784300    0.082883


  Atoms and basis sets
  --------------------

  Number of atom types :    4
  Total number of atoms:   16

  label    atoms   charge   prim   cont     basis
  ----------------------------------------------------------------------
  N           1    7.0000    31    18      [11s5p1d|4s3p1d]                                   
  H           3    1.0000     8     6      [5s1p|3s1p]                                        
  O           4    8.0000    31    18      [11s5p1d|4s3p1d]                                   
  H           8    1.0000     8     6      [5s1p|3s1p]                                        
  ----------------------------------------------------------------------
  total:     16   50.0000   243   156
  ----------------------------------------------------------------------
  Spherical harmonic basis used.

  Threshold for neglecting AO integrals:  1.00D-12


  Cartesian Coordinates (a.u.)
  ----------------------------

  Total number of coordinates:   48
  N       :     1  x   0.0000000000    2  y   0.0000000000    3  z   0.0000000000
  H       :     4  x  -1.5552540495    5  y   0.1302361451    6  z   1.1139122925
  H       :     7  x  -0.0361788067    8  y  -1.7127343761    9  z  -0.7198741598
  H       :    10  x   1.3397836973   11  y   0.0636875499   12  z   1.2509533413
  O       :    13  x   0.6000806413   14  y  -2.5560246594   15  z  -5.6822118161
  O       :    16  x   4.2348327824   17  y   2.9965859596   18  z   3.7863573092
  O       :    19  x  -2.7950032046   20  y  -0.3313729246   21  z   5.6442339901
  O       :    22  x  -0.7634739209   23  y   3.8003469518   24  z  -3.4223204685
  H       :    25  x   0.3178840596   26  y  -2.4290898659   27  z  -7.5270626148
  H       :    28  x  -0.7885581455   29  y  -3.6313808697   30  z  -4.9315880328
  H       :    31  x   2.6067033346   32  y   3.1789483101   33  z   4.5300382388
  H       :    34  x   5.4784294199   35  y   3.8516208907   36  z   4.8672182918
  H       :    37  x  -1.7846479038   38  y   1.0947882641   39  z   6.2368672207
  H       :    40  x  -3.8704255554   41  y   0.4643435034   42  z   4.3527554721
  H       :    43  x   0.3643921092   44  y   3.6467783582   45  z  -4.9055192609
  H       :    46  x  -0.1561102752   47  y   2.6099309868   48  z  -2.1174872559


   Interatomic separations (in Angstrom):
   --------------------------------------

            N           H           H           H           O           O     
            ------      ------      ------      ------      ------      ------
 N     :    0.000000
 H     :    1.014666    0.000000
 H     :    0.983328    1.593421    0.000000
 H     :    0.970569    1.534108    1.581621    0.000000
 O     :    3.312366    4.031788    2.684799    3.941530    0.000000
 O     :    3.398695    3.699817    4.123692    2.560445    6.118733    0.000000
 O     :    3.337562    2.497463    3.742639    3.199376    6.366951    4.231618
 O     :    2.736302    3.116042    3.271764    3.356244    3.642102    4.661392
 H     :    4.188804    4.870881    3.626943    4.858982    0.989890    6.955690
 H     :    3.267613    3.789650    2.481261    3.974371    1.010735    6.375805
 H     :    3.237157    3.274339    4.046561    2.485575    6.288231    0.952096
 H     :    4.380935    4.655819    5.091899    3.532201    7.023254    0.982316
 H     :    3.481409    2.761253    4.076230    3.161123    6.716170    3.583432
 H     :    3.092057    2.114177    3.556633    3.215725    6.029106    4.503552
 H     :    3.240358    3.826382    3.604798    3.804636    3.310365    5.046691
 H     :    1.780417    2.279055    2.404884    2.370539    3.345396    3.898900

            O           O           H           H           H           H     
            ------      ------      ------      ------      ------      ------
 O     :    0.000000
 O     :    5.380997    0.000000
 H     :    7.247478    3.989032    0.000000
 H     :    5.957978    4.013002    1.622962    0.000000
 H     :    3.459630    4.582328    7.140216    6.425326    0.000000
 H     :    4.923080    5.491229    7.843555    7.318868    1.570951    0.000000
 H     :    0.976611    5.335585    7.600358    6.439094    2.726211    4.174412
 H     :    0.983987    4.769466    6.839377    5.612071    3.717586    5.268953
 H     :    6.196228    0.989369    3.501811    3.899486    5.138106    5.837804
 H     :    4.608989    0.988382    3.920196    3.638382    3.821323    4.794122

            H           H           H           H     
            ------      ------      ------      ------
 H     :    0.000000
 H     :    1.524343    0.000000
 H     :    6.154943    5.644543    0.000000
 H     :    4.574951    4.107988    1.598001    0.000000


  Max    interatomic separation is    7.8436 Angstrom (   14.8222 Bohr)
  between atoms   12 and    9, "H     " and "H     ".

  Min HX interatomic separation is    0.9521 Angstrom (    1.7992 Bohr)

  Min YX interatomic separation is    2.7363 Angstrom (    5.1709 Bohr)


  Bond distances (Angstrom):
  --------------------------

                  atom 1     atom 2       distance
                  ------     ------       --------
  bond distance:  H          N            1.014666
  bond distance:  H          N            0.983328
  bond distance:  H          N            0.970569
  bond distance:  H          O            0.989890
  bond distance:  H          O            1.010735
  bond distance:  H          O            0.952096
  bond distance:  H          O            0.982316
  bond distance:  H          O            0.976611
  bond distance:  H          O            0.983987
  bond distance:  H          O            0.989369
  bond distance:  H          O            0.988382


  Bond angles (degrees):
  ----------------------

                  atom 1     atom 2     atom 3         angle
                  ------     ------     ------         -----
  bond angle:     H          N          H            105.775
  bond angle:     H          N          H            101.181
  bond angle:     H          N          H            108.087
  bond angle:     H          O          H            108.428
  bond angle:     H          O          H            108.595
  bond angle:     H          O          H            102.062
  bond angle:     H          O          H            107.800




 Principal moments of inertia (u*A**2) and principal axes
 --------------------------------------------------------

   IA     261.441880          0.024428    0.187677    0.981927
   IB     563.630574          0.738531    0.658606   -0.144253
   IC     651.001665         -0.673776    0.728708   -0.122516


 Rotational constants
 --------------------

               A                   B                   C

           1933.0453            896.6494            776.3099 MHz
            0.064479            0.029909            0.025895 cm-1


@  Nuclear repulsion energy :  179.614847662522 Hartree


                     .---------------------------------------.
                     | Starting in Integral Section (HERMIT) |
                     `---------------------------------------'



 ***************************************************************************************
 ****************** Output from **INTEGRALS input processing (HERMIT) ******************
 ***************************************************************************************



    *************************************************************************
    ****************** Output from HERMIT input processing ******************
    *************************************************************************


 Default print level:        1

 * Nuclear model: Point charge

 Calculation of one- and two-electron Hamiltonian integrals.

 The following one-electron property integrals are calculated as requested:
          - overlap integrals
          - dipole length integrals

 Center of mass  (bohr):      0.250901534069      0.784300140682      0.082883393898
 Operator center (bohr):      0.000000000000      0.000000000000      0.000000000000
 Gauge origin    (bohr):      0.000000000000      0.000000000000      0.000000000000
 Dipole origin   (bohr):      0.000000000000      0.000000000000      0.000000000000
 
  *********************************** 
  QMMM electrostatic potential: 
  Multipole order                                    0
  Isotropic polarization  
  *********************************** 
 
  ---------------- 
  QMMM information 
  ---------------- 
 
  MM coordinates in au 
  -------------------- 
     1     10.390561      8.551517    -11.305219
     2     10.676382      7.721396    -13.061118
     3      9.489628     10.085255    -11.601255
     4     -7.630850     -5.891956      4.565302
     5     -6.728444     -7.336181      5.237351
     6     -7.682886     -4.530405      6.008957
     7     -8.142488     -2.705922      8.041370
     8     -7.157657     -3.162239      9.585222
     9    -10.046627     -2.703089      8.365963
    10    -10.546242      7.141526      7.622781
    11     -9.447056      8.152930      8.690066
    12    -10.504052      8.129163      6.022519
    13     -6.120912      1.621005      1.916144
    14     -7.924601      1.945739      2.238985
    15     -5.902127      1.852225      0.066775
    16      9.487461      7.406500     -6.451903
    17      7.970678      8.108135     -5.613477
    18      9.867241      8.120087     -8.116173
    19     -1.678853     -7.861533     -9.169771
    20     -2.774280     -6.379884     -8.942224
    21     -1.447965     -7.958117    -11.027172
    22      7.112925     -5.538700     11.698620
    23      6.903360     -5.018876     13.534904
    24      5.512599     -4.989434     10.852157
    25     -9.606627      5.759513     -4.682010
    26    -10.981093      7.068016     -4.985203
    27     -9.526964      4.983786     -6.345672
    28     -7.690469     -0.156947     -7.296410
    29     -6.460051      0.649168     -6.193375
    30     -9.243170     -0.579226     -6.133359
    31     -2.900422     -5.436513     -3.284259
    32     -1.997841     -6.924867     -2.632024
    33     -4.048033     -4.978689     -1.787547
    34     -3.518090      2.996199     11.303334
    35     -3.789026      4.311236     12.490230
    36     -5.131723      2.978934     10.244056
    37     10.509432      2.862854     -1.727489
    38     11.908697      3.790524     -2.424632
    39      8.929729      3.820270     -1.510832
    40      9.557362     10.685734     -0.887962
    41      9.233002     11.494832      0.767274
    42      9.894230     12.062723     -2.185793
    43      6.421577      9.599062      6.449282
    44      6.022837     10.314392      4.798816
    45      7.124560      7.967924      6.243241
    46     -0.974188     -1.261466    -11.053411
    47      0.532049     -1.550809    -12.171637
    48     -1.507444      0.561062    -11.276413
    49     -8.037279     10.487795      9.993497
    50     -6.807993      9.872050     11.352947
    51     -9.042228     11.644806     10.976130
    52     -9.710734      7.633059      1.828180
    53    -10.472728      9.195876      0.963966
    54     -7.945021      7.953642      1.847695
    55     10.183521     -1.940906      8.959161
    56      9.704244     -0.160585      9.822885
    57      9.074176     -3.147660     10.079603
    58     -1.319401     -9.331488      9.210725
    59     -0.119342    -10.639808      9.349070
    60     -0.539247     -8.156978      8.065892
    61     10.939623     -9.800687      7.891903
    62      9.798899    -11.254113      7.966080
    63     11.261067     -9.429081      9.620713
    64      0.377482      9.453062     -8.346283
    65      1.572048     10.741653     -7.818269
    66      1.022425      7.762277     -7.983945
    67      7.005071     -5.391808     -6.627243
    68      7.199339     -3.809818     -5.616053
    69      8.404580     -6.561040     -6.301452
    70      4.952938    -10.670342      2.987054
    71      4.955852     -8.936859      3.538767
    72      4.342780    -10.720987      1.269006
    73      2.997485     -3.013679      9.242705
    74      1.966064     -4.055192      7.901230
    75      4.307531     -2.208769      8.043491
    76     -4.475418      8.036773    -10.114632
    77     -5.014745      8.765778     -8.572440
    78     -2.729129      8.877200    -10.125436
    79     -5.709250      2.459838     -3.049287
    80     -6.527594      4.049050     -3.293256
    81     -3.980961      2.894526     -3.538259
    82      6.020858     -4.675449      0.075238
    83      6.084302     -4.118242      1.841597
    84      6.442872     -3.116039     -0.971119
    85      6.215432    -10.862767    -11.065866
    86      5.290746    -10.728820     -9.460341
    87      6.375996     -9.040440    -11.484892
    88      1.643650      4.313425     -8.107870
    89      1.111764      3.014620     -9.305527
    90      3.561773      3.980115     -7.884884
    91     -7.195089     -8.929442     -6.562378
    92     -6.076851     -7.843244     -5.513017
    93     -6.189635    -10.550528     -6.668422
    94      5.059530      8.514698     -3.325538
    95      3.708680      9.750539     -2.990331
    96      6.559803      9.447784     -2.556395
    97      4.980018     -0.772118     -4.136057
    98      3.302984     -1.431823     -4.635188
    99      4.744095      0.731980     -3.082421
   100      2.865135     -8.614541     -7.149297
   101      1.158200     -8.108357     -7.937978
   102      3.843327     -7.124570     -6.466202
   103    -10.133038      3.832164     -9.525210
   104     -8.967164      4.611017    -10.699837
   105     -9.075045      2.380324     -8.829483
   106      1.193649     -6.458969      0.694724
   107      2.829525     -5.702460      0.316994
   108      1.329498     -8.175664     -0.165508
   109     -0.646946      4.801471      7.293269
   110     -1.658609      4.421313      8.827209
   111      0.400652      6.196187      7.917191
   112     -5.515933     -3.470337    -11.095185
   113     -3.765876     -2.701551    -11.261912
   114     -6.378761     -2.339419     -9.856352
   115     -5.942300      9.523371     -5.335235
   116     -7.220317      8.209129     -4.960350
   117     -4.512228      9.172508     -4.172973
   118     11.562486     -5.181852     -1.260842
   119     13.419026     -5.103090     -1.256560
   120     11.138851     -6.074801      0.348808
   121      1.460738    -10.911437     -1.905260
   122      0.176568    -12.358847     -1.850384
   123      1.397585    -10.260279     -3.574428
   124     11.014235     -9.374393     -4.745813
   125     11.032049     -7.824485     -3.659198
   126     12.916072     -9.310048     -5.126657
   127     -1.831647      8.611947     -1.816873
   128     -1.488819      6.980518     -2.614034
   129     -2.281746      8.212517     -0.020394
   130      2.020312      9.381205      9.622155
   131      2.666230      9.110793     11.301220
   132      3.607340      9.796474      8.587671
   133     10.741364     -8.261454      2.600618
   134     12.176265     -7.501861      3.569020
   135      9.218029     -7.708662      3.499232
   136     -3.658168      8.165900      2.677525
   137     -2.875757      6.835410      3.691705
   138     -4.244824      9.463490      3.928293
   139      6.927611      2.966339     -7.592020
   140      6.521980      1.710911     -6.240635
   141      7.808501      4.460557     -6.832556
   142    -11.654353      3.044931      3.494325
   143    -11.056308      4.550999      2.684377
   144    -12.558328      2.276838      2.072143
   145      5.243015      3.459457     -1.367334
   146      4.425967      4.722681     -2.505372
   147      4.684537      3.977463      0.366979
   148    -10.703624     -9.060466    -10.686923
   149     -9.121428     -8.519526     -9.757100
   150    -12.044253     -9.327444     -9.348997
   151     -6.763061     -3.981927      0.323583
   152     -6.765836     -2.097999      0.631288
   153     -6.737688     -4.791856      2.048996
   154      9.160206      2.409622     11.325526
   155     10.829871      2.769178     12.262510
   156      7.959097      2.152434     12.697452
   157      7.968331      4.774404      6.580281
   158      9.554452      4.517517      5.546286
   159      8.584474      4.204002      8.248424
   160     -0.372724     -5.062693      5.486601
   161     -1.405588     -3.509528      5.358169
   162     -0.085452     -5.460777      3.631113
   163     -4.973702    -11.443658      6.090977
   164     -6.306383    -11.806869      7.372974
   165     -3.578932    -10.792453      7.111130
   166     -7.737204      2.853282      8.811536
   167     -8.682481      3.893448      7.551111
   168     -8.333543      1.086415      8.605110
   169      7.097250     -6.697565      5.791888
   170      6.792553     -4.910935      5.759394
   171      8.132771     -7.236183      7.141111
   172      6.224442     -1.606915      5.224885
   173      5.591203     -0.181828      4.252464
   174      7.764180     -1.052379      6.131145
   175     11.296834     -1.237629     -4.915845
   176     11.316275     -2.915116     -4.108208
   177     10.759776     -0.010216     -3.601304
 
  MM charges 
  ---------- 
     1     -0.674440
     2      0.337220
     3      0.337220
     4     -0.674440
     5      0.337220
     6      0.337220
     7     -0.674440
     8      0.337220
     9      0.337220
    10     -0.674440
    11      0.337220
    12      0.337220
    13     -0.674440
    14      0.337220
    15      0.337220
    16     -0.674440
    17      0.337220
    18      0.337220
    19     -0.674440
    20      0.337220
    21      0.337220
    22     -0.674440
    23      0.337220
    24      0.337220
    25     -0.674440
    26      0.337220
    27      0.337220
    28     -0.674440
    29      0.337220
    30      0.337220
    31     -0.674440
    32      0.337220
    33      0.337220
    34     -0.674440
    35      0.337220
    36      0.337220
    37     -0.674440
    38      0.337220
    39      0.337220
    40     -0.674440
    41      0.337220
    42      0.337220
    43     -0.674440
    44      0.337220
    45      0.337220
    46     -0.674440
    47      0.337220
    48      0.337220
    49     -0.674440
    50      0.337220
    51      0.337220
    52     -0.674440
    53      0.337220
    54      0.337220
    55     -0.674440
    56      0.337220
    57      0.337220
    58     -0.674440
    59      0.337220
    60      0.337220
    61     -0.674440
    62      0.337220
    63      0.337220
    64     -0.674440
    65      0.337220
    66      0.337220
    67     -0.674440
    68      0.337220
    69      0.337220
    70     -0.674440
    71      0.337220
    72      0.337220
    73     -0.674440
    74      0.337220
    75      0.337220
    76     -0.674440
    77      0.337220
    78      0.337220
    79     -0.674440
    80      0.337220
    81      0.337220
    82     -0.674440
    83      0.337220
    84      0.337220
    85     -0.674440
    86      0.337220
    87      0.337220
    88     -0.674440
    89      0.337220
    90      0.337220
    91     -0.674440
    92      0.337220
    93      0.337220
    94     -0.674440
    95      0.337220
    96      0.337220
    97     -0.674440
    98      0.337220
    99      0.337220
   100     -0.674440
   101      0.337220
   102      0.337220
   103     -0.674440
   104      0.337220
   105      0.337220
   106     -0.674440
   107      0.337220
   108      0.337220
   109     -0.674440
   110      0.337220
   111      0.337220
   112     -0.674440
   113      0.337220
   114      0.337220
   115     -0.674440
   116      0.337220
   117      0.337220
   118     -0.674440
   119      0.337220
   120      0.337220
   121     -0.674440
   122      0.337220
   123      0.337220
   124     -0.674440
   125      0.337220
   126      0.337220
   127     -0.674440
   128      0.337220
   129      0.337220
   130     -0.674440
   131      0.337220
   132      0.337220
   133     -0.674440
   134      0.337220
   135      0.337220
   136     -0.674440
   137      0.337220
   138      0.337220
   139     -0.674440
   140      0.337220
   141      0.337220
   142     -0.674440
   143      0.337220
   144      0.337220
   145     -0.674440
   146      0.337220
   147      0.337220
   148     -0.674440
   149      0.337220
   150      0.337220
   151     -0.674440
   152      0.337220
   153      0.337220
   154     -0.674440
   155      0.337220
   156      0.337220
   157     -0.674440
   158      0.337220
   159      0.337220
   160     -0.674440
   161      0.337220
   162      0.337220
   163     -0.674440
   164      0.337220
   165      0.337220
   166     -0.674440
   167      0.337220
   168      0.337220
   169     -0.674440
   170      0.337220
   171      0.337220
   172     -0.674440
   173      0.337220
   174      0.337220
   175     -0.674440
   176      0.337220
   177      0.337220
 
  MM isotropic polarizabilities in au 
  ----------------------------------- 
     1      5.739350
     2      2.308390
     3      2.308390
     4      5.739350
     5      2.308390
     6      2.308390
     7      5.739350
     8      2.308390
     9      2.308390
    10      5.739350
    11      2.308390
    12      2.308390
    13      5.739350
    14      2.308390
    15      2.308390
    16      5.739350
    17      2.308390
    18      2.308390
    19      5.739350
    20      2.308390
    21      2.308390
    22      5.739350
    23      2.308390
    24      2.308390
    25      5.739350
    26      2.308390
    27      2.308390
    28      5.739350
    29      2.308390
    30      2.308390
    31      5.739350
    32      2.308390
    33      2.308390
    34      5.739350
    35      2.308390
    36      2.308390
    37      5.739350
    38      2.308390
    39      2.308390
    40      5.739350
    41      2.308390
    42      2.308390
    43      5.739350
    44      2.308390
    45      2.308390
    46      5.739350
    47      2.308390
    48      2.308390
    49      5.739350
    50      2.308390
    51      2.308390
    52      5.739350
    53      2.308390
    54      2.308390
    55      5.739350
    56      2.308390
    57      2.308390
    58      5.739350
    59      2.308390
    60      2.308390
    61      5.739350
    62      2.308390
    63      2.308390
    64      5.739350
    65      2.308390
    66      2.308390
    67      5.739350
    68      2.308390
    69      2.308390
    70      5.739350
    71      2.308390
    72      2.308390
    73      5.739350
    74      2.308390
    75      2.308390
    76      5.739350
    77      2.308390
    78      2.308390
    79      5.739350
    80      2.308390
    81      2.308390
    82      5.739350
    83      2.308390
    84      2.308390
    85      5.739350
    86      2.308390
    87      2.308390
    88      5.739350
    89      2.308390
    90      2.308390
    91      5.739350
    92      2.308390
    93      2.308390
    94      5.739350
    95      2.308390
    96      2.308390
    97      5.739350
    98      2.308390
    99      2.308390
   100      5.739350
   101      2.308390
   102      2.308390
   103      5.739350
   104      2.308390
   105      2.308390
   106      5.739350
   107      2.308390
   108      2.308390
   109      5.739350
   110      2.308390
   111      2.308390
   112      5.739350
   113      2.308390
   114      2.308390
   115      5.739350
   116      2.308390
   117      2.308390
   118      5.739350
   119      2.308390
   120      2.308390
   121      5.739350
   122      2.308390
   123      2.308390
   124      5.739350
   125      2.308390
   126      2.308390
   127      5.739350
   128      2.308390
   129      2.308390
   130      5.739350
   131      2.308390
   132      2.308390
   133      5.739350
   134      2.308390
   135      2.308390
   136      5.739350
   137      2.308390
   138      2.308390
   139      5.739350
   140      2.308390
   141      2.308390
   142      5.739350
   143      2.308390
   144      2.308390
   145      5.739350
   146      2.308390
   147      2.308390
   148      5.739350
   149      2.308390
   150      2.308390
   151      5.739350
   152      2.308390
   153      2.308390
   154      5.739350
   155      2.308390
   156      2.308390
   157      5.739350
   158      2.308390
   159      2.308390
   160      5.739350
   161      2.308390
   162      2.308390
   163      5.739350
   164      2.308390
   165      2.308390
   166      5.739350
   167      2.308390
   168      2.308390
   169      5.739350
   170      2.308390
   171      2.308390
   172      5.739350
   173      2.308390
   174      2.308390
   175      5.739350
   176      2.308390
   177      2.308390


     ************************************************************************
     ************************** Output from HERINT **************************
     ************************************************************************



                      Nuclear contribution to dipole moments
                      --------------------------------------

                 au               Debye          C m (/(10**-30)

      x     12.12750827        30.82504937       102.82129701
      y     38.54341151        97.96757390       326.78465148
      z      4.75868565        12.09537168        40.34581712


  Time used in HUCKEL     is       0.69 seconds
  Time used in OVERLAP    is       2.11 seconds
  Time used in POPOVLP    is       0.20 seconds
  Time used in DIPLEN     is       0.36 seconds
  Time used in QUADRUP    is       0.33 seconds
  Time used in KINENE     is       0.12 seconds

 Threshold for neglecting two-electron integrals:  1.00D-12
 HERMIT - Number of two-electron integrals written:    27158772 ( 36.2% )
 HERMIT - Megabytes written:                            310.983

  Time used in TWOINT     is      15.22 seconds
  Total CPU  time used in HERMIT:  19.09 seconds
  Total wall time used in HERMIT:   6.91 seconds


                        .----------------------------------.
                        | End of Integral Section (HERMIT) |
                        `----------------------------------'



                   .--------------------------------------------.
                   | Starting in Wave Function Section (SIRIUS) |
                   `--------------------------------------------'

NCCEXCI for singlet:   15
 CCSD_INPUT: core-val requested
 Requested number of core orbs per sym
                     1
 Indices of requested core orbs
                     1

 *** Output from Huckel module :

     Using EWMO model:          T
     Using EHT  model:          F
     Number of Huckel orbitals each symmetry:   36

 EWMO - Energy Weighted Maximum Overlap - is a Huckel type method,
        which normally is better than Extended Huckel Theory.
 Reference: Linderberg and Ohrn, Propagators in Quantum Chemistry (Wiley, 1973)

 Huckel EWMO eigenvalues for symmetry :  1
          -20.684839     -20.684608     -20.684555     -20.684282     -15.674881
           -1.721960      -1.614734      -1.590708      -1.574507      -1.484875
           -0.815532      -0.805312      -0.795077      -0.771990      -0.723200
           -0.707329      -0.693780      -0.682142      -0.670535      -0.663555
           -0.620106      -0.615534      -0.608649      -0.603122      -0.512900
           -0.255545      -0.245765      -0.230184      -0.225814      -0.181695
           -0.180604      -0.173071      -0.166022      -0.150167      -0.141959
           -0.136263

 **********************************************************************
 *SIRIUS* a direct, restricted step, second order MCSCF program       *
 **********************************************************************

 
     Date and time (Linux)  : Sat Dec 29 19:46:08 2018
     Host name              : n-62-29-6                               

 Title lines from ".mol" input file:
                                                                             
                                                                             

 Print level on unit LUPRI =   2 is   0
 Print level on unit LUW4  =   2 is  11

@    (Integral direct) CC calculation.

@    This is a combination run starting with
@              a restricted, closed shell Hartree-Fock calculation


 Initial molecular orbitals are obtained according to
 ".MOSTART EWMO  " input option

@    QM part is embedded in an environment :

@         Model: QMMM

     Wave function specification
     ============================

     For the specification of the Coupled Cluster: see later.

@    Wave function type        --- CC ---
@    Number of closed shell electrons          50
@    Number of electrons in active shells       0
@    Total charge of the molecule               0

@    Spin multiplicity and 2 M_S                1         0
@    Total number of symmetries                 1 (point group: C1 )
@    Reference state symmetry                   1 (irrep name : A  )

     Orbital specifications
     ======================
@    Abelian symmetry species          All |    1
@                                          |  A  
                                       --- |  ---
@    Occupied SCF orbitals              25 |   25
@    Secondary orbitals                131 |  131
@    Total number of orbitals          156 |  156
@    Number of basis functions         156 |  156

     Optimization information
     ========================
@    Number of configurations                 1
@    Number of orbital rotations           3275
     ------------------------------------------
@    Total number of variables             3276

     Maximum number of Fock   iterations      0
     Maximum number of DIIS   iterations     60
     Maximum number of QC-SCF iterations     60
     Threshold for SCF convergence     1.00D-07


 Changes of defaults for CC:
 ---------------------------


 -Implicit frozen core calculation
 -Excitation energies calculated
 -One-photon absorption strengths will be calculated
 -Oscillator strengths calculated
  
* Read MO coefficients from SIRIUS.RST with label "NEWORB  " and header info: 29Dec18  REORTHO 


 ***********************************************
 ***** DIIS acceleration of SCF iterations *****
 ***********************************************

 C1-DIIS algorithm; max error vectors =    8
 -----------------------------------------------------------------------------

 *** DIIS iteration number    1
 RDSUPM called. NFMAT, ISYMDM(1:NFMAT)                     1
                     1

Calculating AOSUPINT
     (Precalculated two-electron integrals are transformed to P-supermatrix elements.
      Threshold for discarding integrals :  1.00D-12 )
  CPU  time used in FORMSUP    is   7.01 seconds
  WALL time used in FORMSUP    is   9.68 seconds

 ITDIIS, energy, error norm, change in energy, scr.thr., difden:
@ DIIS iter.   1    -359.902203863        3.86994D+00   -3.60D+02  -20    F

 (DIIS_RED) Control Parameters C2DIIS =         F NEVC =    1


 (DIIS_RED) B matrix:

               Column   1
       1      14.97646305
    ==== End of matrix output ====

 DIIS C vector; C2DIIS = F, LAMBDA = -1.50D+01
    1.000000
* Read MO coefficients from SIRIUS.RST with label "NEWORB  " and header info: 29Dec18  DIIS   1
      Virial theorem: -V/T =      1.998030
@      MULPOP N      -0.38; H       0.18; H       0.18; H       0.17; O      -0.64; O      -0.63; O      -0.66; O      -0.82; H       0.32; H       0.33; 
@             H       0.33; H       0.31; H       0.33; H       0.34; H       0.32; H       0.32; 
   1  Level shift: doubly occupied orbital energies shifted by -2.00D-01

 DIIS Fock eigenvalues in symmetry 1
      -20.77682      -20.69921      -20.69199      -20.57546      -16.01125
       -1.60593       -1.53845       -1.51043       -1.49281       -1.47861
       -0.99665       -0.97763       -0.96236       -0.91148       -0.90076
       -0.89644       -0.84193       -0.81045       -0.78531       -0.78438
       -0.77068       -0.73577       -0.72547       -0.71805       -0.69162
        0.07951        0.13881        0.16077        0.19091        0.20903
        0.21843        0.25185        0.27387        0.31840        0.33412
        0.34243        0.41054        0.45903        0.50291        0.52433
        0.52985        0.55062        0.56708        0.58639        0.60150
        0.61082        0.65433        0.81114        0.86094        0.89631
        0.90736        0.95431        0.97362        0.98054        0.99751
        1.00741        1.03509        1.06455        1.07672        1.11917
        1.12411        1.15455        1.21276        1.23127        1.23627
        1.30812        1.32203        1.34717        1.40894        1.43903
        1.44923        1.46970        1.48253        1.51007        1.54159
        1.55448        1.58185        1.64098        1.65143        1.69875
        1.72275        1.73461        1.76809        1.80071        1.83071
        1.85057        1.87971        1.93263        1.94771        2.06276
        2.12028        2.18024        2.19976        2.21570        2.27123
        2.28164        2.31032        2.34370        2.41891        2.50671
        2.51699        2.57274        2.58741        2.62347        2.63799
        2.65938        2.71873        2.75758        2.77722        2.78373
        2.84038        2.87216        2.92081        3.05703        3.34365
        3.36197        3.38001        3.42035        3.45899        3.46076
        3.47122        3.49952        3.50598        3.57123        3.59604
        3.61994        3.66360        3.68760        3.95765        3.97713
        4.00464        4.04555        4.16202        4.18165        4.21664
        4.23474        4.46444        5.02444        5.15690        5.25081
        5.33905        5.39706        5.41620        5.67140        5.69787
        5.73765        5.76734        6.09300        6.09524        6.11038
        6.22684       36.82874       51.51531       51.56141       51.57478
       51.72565
 Time used in FCKEIG, thr_jaco:   4.59D-01  4.60D-02  1.69D-04
 CPU and wall times used in FCKEIG, THR_FCKEIG:   4.59D-01  4.60D-02  3.87D-02
 -----------------------------------------------------------------------------

 *** DIIS iteration number    2
 RDSUPM called. NFMAT, ISYMDM(1:NFMAT)                     1
                     1

 ITDIIS, energy, error norm, change in energy, scr.thr., difden:
@ DIIS iter.   2    -360.723582927        9.42261D-01   -8.21D-01  -20    F

 (DIIS_RED) Control Parameters C2DIIS =         F NEVC =    2


 (DIIS_RED) B matrix:

               Column   1     Column   2
       1      14.97646305
       2       0.96983032     0.88785622
    ==== End of matrix output ====

 DIIS C vector; C2DIIS = F, LAMBDA = -8.87D-01
   -0.005887    1.005887
* Read MO coefficients from SIRIUS.RST with label "NEWORB  " and header info: 29Dec18  DIIS   2
      Virial theorem: -V/T =      2.003230
@      MULPOP N      -0.65; H       0.22; H       0.26; H       0.21; O      -0.60; O      -0.59; O      -0.55; O      -0.68; H       0.27; H       0.34; 
@             H       0.29; H       0.32; H       0.27; H       0.30; H       0.28; H       0.31; 
   2  Level shift: doubly occupied orbital energies shifted by -5.00D-02

 DIIS Fock eigenvalues in symmetry 1
      -20.67281      -20.65621      -20.61867      -20.60044      -15.47227
       -1.43513       -1.39735       -1.37905       -1.35378       -1.18058
       -0.80714       -0.76527       -0.73537       -0.72445       -0.68515
       -0.67119       -0.66030       -0.65380       -0.63377       -0.62405
       -0.61553       -0.59174       -0.56221       -0.54604       -0.47428
        0.12638        0.17179        0.19235        0.22752        0.23337
        0.25778        0.28861        0.30144        0.34920        0.36127
        0.37333        0.48421        0.52736        0.55111        0.56380
        0.57012        0.58028        0.60640        0.62075        0.64407
        0.65173        0.72104        0.90143        0.91855        0.94630
        0.95969        0.97456        0.99177        1.01272        1.02440
        1.05175        1.05910        1.09227        1.10436        1.12672
        1.14801        1.16318        1.26793        1.31625        1.33981
        1.35039        1.37385        1.39265        1.46424        1.47730
        1.49551        1.52259        1.53890        1.56038        1.58800
        1.59514        1.60548        1.70001        1.71321        1.74578
        1.77051        1.83615        1.85717        1.87800        1.90142
        1.91218        1.94657        2.01958        2.03413        2.18698
        2.23577        2.24795        2.26030        2.26802        2.29832
        2.34729        2.36649        2.41236        2.51009        2.58368
        2.59702        2.63394        2.64833        2.68895        2.71989
        2.75084        2.78899        2.82347        2.84103        2.85243
        2.98476        3.03448        3.06581        3.21776        3.39845
        3.41871        3.44120        3.48157        3.49572        3.51552
        3.51756        3.52827        3.55003        3.58105        3.63714
        3.64477        3.65052        3.68814        3.98375        3.99943
        4.01216        4.03033        4.18012        4.19919        4.21113
        4.25173        4.66211        5.25445        5.27511        5.29372
        5.34245        5.37952        5.41659        5.65685        5.68542
        5.69801        5.73023        6.10609        6.10795        6.13917
        6.14588       37.21084       51.48219       51.48816       51.50658
       51.50932
 Time used in FCKEIG, thr_jaco:   3.21D-01  3.30D-02  4.12D-05
 CPU and wall times used in FCKEIG, THR_FCKEIG:   3.22D-01  3.30D-02  9.42D-03
 -----------------------------------------------------------------------------

 *** DIIS iteration number    3
 RDSUPM called. NFMAT, ISYMDM(1:NFMAT)                     1
                     1

 ITDIIS, energy, error norm, change in energy, scr.thr., difden:
@ DIIS iter.   3    -360.784879801        3.39812D-01   -6.13D-02  -20    F

 (DIIS_RED) Control Parameters C2DIIS =         F NEVC =    3


 (DIIS_RED) B matrix:

               Column   1     Column   2     Column   3
       1      14.97646305
       2       0.96983032     0.88785622
       3       0.62312619     0.06072442     0.11547252
    ==== End of matrix output ====

 DIIS C vector; C2DIIS = F, LAMBDA = -9.13D-02
   -0.038980    0.079826    0.959154
* Read MO coefficients from SIRIUS.RST with label "NEWORB  " and header info: 29Dec18  DIIS   3
      Virial theorem: -V/T =      2.001364
@      MULPOP N      -0.56; H       0.19; H       0.23; H       0.18; O      -0.66; O      -0.64; O      -0.60; O      -0.76; H       0.29; H       0.38; 
@             H       0.31; H       0.34; H       0.29; H       0.33; H       0.34; H       0.35; 
   3  Level shift: doubly occupied orbital energies shifted by -2.50D-02

 DIIS Fock eigenvalues in symmetry 1
      -20.60852      -20.54806      -20.54209      -20.52275      -15.58779
       -1.40149       -1.33748       -1.33095       -1.31701       -1.19353
       -0.77219       -0.70865       -0.69394       -0.69074       -0.67667
       -0.65603       -0.63721       -0.59570       -0.58969       -0.58054
       -0.57556       -0.51838       -0.51293       -0.50005       -0.47304
        0.12938        0.17530        0.19522        0.23217        0.23532
        0.25990        0.28942        0.30337        0.35023        0.36574
        0.37352        0.48257        0.52514        0.55918        0.57365
        0.57891        0.58905        0.61480        0.62648        0.65120
        0.65968        0.72238        0.90435        0.92820        0.96144
        0.96907        0.98449        0.99917        1.01179        1.03160
        1.05275        1.07208        1.10065        1.11398        1.14221
        1.16021        1.17343        1.27154        1.31349        1.34387
        1.34995        1.38100        1.39293        1.47908        1.48716
        1.50580        1.53088        1.54758        1.57303        1.60278
        1.60473        1.61784        1.70791        1.72215        1.75765
        1.77841        1.83837        1.85831        1.88264        1.90748
        1.91692        1.95573        2.02267        2.03531        2.17579
        2.23523        2.25108        2.26710        2.27493        2.31953
        2.35761        2.37746        2.42678        2.52102        2.59243
        2.60110        2.64521        2.65795        2.69777        2.72450
        2.75523        2.79498        2.83308        2.84787        2.85633
        2.96831        3.00682        3.04691        3.19277        3.41432
        3.45870        3.46888        3.50257        3.50584        3.51160
        3.53664        3.54507        3.54753        3.57617        3.65267
        3.66582        3.69326        3.71241        4.00594        4.02472
        4.04101        4.05765        4.21587        4.21944        4.23937
        4.27766        4.60516        5.21047        5.28324        5.34307
        5.35167        5.38747        5.42309        5.70367        5.71432
        5.73531        5.76112        6.13082        6.13754        6.16430
        6.20919       37.07480       51.51123       51.53897       51.55419
       51.60782
 Time used in FCKEIG, thr_jaco:   2.70D-01  2.80D-02  1.48D-05
 CPU and wall times used in FCKEIG, THR_FCKEIG:   2.70D-01  2.80D-02  3.40D-03
 -----------------------------------------------------------------------------

 *** DIIS iteration number    4
 RDSUPM called. NFMAT, ISYMDM(1:NFMAT)                     1
                     1

 ITDIIS, energy, error norm, change in energy, scr.thr., difden:
@ DIIS iter.   4    -360.792907447        1.16337D-01   -8.03D-03  -20    F

 (DIIS_RED) Control Parameters C2DIIS =         F NEVC =    4


 (DIIS_RED) B matrix:

               Column   1     Column   2     Column   3     Column   4
       1      14.97646305
       2       0.96983032     0.88785622
       3       0.62312619     0.06072442     0.11547252
       4      -0.00279909     0.08151405    -0.00849024     0.01353435
    ==== End of matrix output ====

 DIIS C vector; C2DIIS = F, LAMBDA = -3.92D-03
    0.000144   -0.092498    0.151008    0.941346
* Read MO coefficients from SIRIUS.RST with label "NEWORB  " and header info: 29Dec18  DIIS   4
      Virial theorem: -V/T =      2.002133
@      MULPOP N      -0.63; H       0.21; H       0.25; H       0.19; O      -0.67; O      -0.66; O      -0.60; O      -0.75; H       0.30; H       0.39; 
@             H       0.31; H       0.35; H       0.29; H       0.33; H       0.34; H       0.35; 
   4  Level shift: doubly occupied orbital energies shifted by -1.25D-02

 DIIS Fock eigenvalues in symmetry 1
      -20.60265      -20.55000      -20.54858      -20.53868      -15.54071
       -1.39238       -1.33121       -1.33036       -1.30825       -1.17041
       -0.76266       -0.70406       -0.68587       -0.67869       -0.65744
       -0.63588       -0.62389       -0.59114       -0.58116       -0.56745
       -0.56477       -0.51390       -0.50252       -0.48808       -0.45014
        0.12850        0.17484        0.19399        0.23177        0.23505
        0.25996        0.29033        0.30322        0.35064        0.36557
        0.37487        0.48629        0.52869        0.56000        0.57208
        0.57708        0.58731        0.61403        0.62549        0.65037
        0.65725        0.72443        0.90764        0.92986        0.96176
        0.96972        0.98425        0.99923        1.01403        1.03190
        1.05441        1.07138        1.10031        1.11274        1.13876
        1.15906        1.17188        1.27146        1.31679        1.34583
        1.35125        1.38060        1.39455        1.47672        1.48486
        1.50337        1.52901        1.54563        1.57102        1.60058
        1.60275        1.61528        1.70576        1.72056        1.75657
        1.77663        1.84042        1.86075        1.88273        1.90712
        1.91759        1.95296        2.02517        2.03860        2.18222
        2.23966        2.24991        2.26532        2.27287        2.31390
        2.35458        2.37458        2.42253        2.52194        2.59035
        2.60363        2.64385        2.65534        2.69637        2.72709
        2.75681        2.79354        2.83288        2.84610        2.85620
        2.97645        3.01778        3.05542        3.20235        3.41253
        3.45527        3.45884        3.50076        3.50976        3.51485
        3.53822        3.54495        3.54958        3.56981        3.65099
        3.66342        3.68287        3.70776        4.00165        4.02109
        4.03557        4.05051        4.21190        4.21526        4.23321
        4.27271        4.62200        5.22694        5.28106        5.33896
        5.35441        5.37890        5.41744        5.70062        5.70400
        5.72243        5.75368        6.12582        6.12956        6.16040
        6.19055       37.10873       51.50466       51.52994       51.54020
       51.57041
 Time used in FCKEIG, thr_jaco:   2.86D-01  2.80D-02  5.08D-06
 CPU and wall times used in FCKEIG, THR_FCKEIG:   2.86D-01  2.80D-02  1.16D-03
 -----------------------------------------------------------------------------

 *** DIIS iteration number    5
 RDSUPM called. NFMAT, ISYMDM(1:NFMAT)                     1
                     1

 ITDIIS, energy, error norm, change in energy, scr.thr., difden:
@ DIIS iter.   5    -360.793996857        2.37862D-02   -1.09D-03  -20    F

 (DIIS_RED) Control Parameters C2DIIS =         F NEVC =    5


 (DIIS_RED) B matrix:

               Column   1     Column   2     Column   3     Column   4     Column   5
       1      14.97646305
       2       0.96983032     0.88785622
       3       0.62312619     0.06072442     0.11547252
       4      -0.00279909     0.08151405    -0.00849024     0.01353435
       5       0.01391301     0.00644716     0.00488709     0.00069713     0.00056578
    ==== End of matrix output ====

 DIIS C vector; C2DIIS = F, LAMBDA = -3.25D-04
    0.001268    0.003608   -0.061727   -0.095560    1.152412
* Read MO coefficients from SIRIUS.RST with label "NEWORB  " and header info: 29Dec18  DIIS   5
      Virial theorem: -V/T =      2.001775
@      MULPOP N      -0.62; H       0.20; H       0.25; H       0.19; O      -0.68; O      -0.67; O      -0.61; O      -0.77; H       0.30; H       0.39; 
@             H       0.32; H       0.36; H       0.30; H       0.34; H       0.35; H       0.36; 

 DIIS Fock eigenvalues in symmetry 1
      -20.58926      -20.53529      -20.52911      -20.52499      -15.52431
       -1.37967       -1.31798       -1.31539       -1.29541       -1.15689
       -0.75050       -0.69020       -0.67314       -0.66630       -0.64453
       -0.62279       -0.61121       -0.57650       -0.56850       -0.55382
       -0.55224       -0.49823       -0.48845       -0.47441       -0.43621
        0.12828        0.17474        0.19376        0.23176        0.23511
        0.25989        0.29032        0.30318        0.35059        0.36565
        0.37506        0.48649        0.52882        0.56016        0.57208
        0.57690        0.58738        0.61400        0.62523        0.65043
        0.65709        0.72477        0.90871        0.93061        0.96272
        0.97091        0.98466        1.00027        1.01460        1.03252
        1.05475        1.07228        1.10051        1.11290        1.13933
        1.15947        1.17232        1.27166        1.31728        1.34610
        1.35162        1.38085        1.39489        1.47712        1.48483
        1.50330        1.52863        1.54512        1.57111        1.60074
        1.60268        1.61570        1.70525        1.72049        1.75672
        1.77612        1.84032        1.86103        1.88246        1.90676
        1.91758        1.95247        2.02537        2.03895        2.18264
        2.23973        2.24964        2.26490        2.27245        2.31439
        2.35411        2.37408        2.42238        2.52234        2.58989
        2.60392        2.64363        2.65490        2.69600        2.72711
        2.75690        2.79289        2.83258        2.84528        2.85591
        2.97707        3.01851        3.05610        3.20313        3.41275
        3.45640        3.46072        3.50148        3.50982        3.51599
        3.53905        3.54521        3.55093        3.57187        3.65112
        3.66370        3.68528        3.70835        4.00215        4.02150
        4.03669        4.05179        4.21313        4.21580        4.23445
        4.27339        4.62391        5.22860        5.28174        5.34199
        5.35585        5.38104        5.41884        5.70098        5.70635
        5.72439        5.75473        6.12617        6.13041        6.16053
        6.19402       37.11253       51.50557       51.53117       51.54235
       51.57721
 Time used in FCKEIG, thr_jaco:   2.25D-01  2.30D-02  1.04D-06
 CPU and wall times used in FCKEIG, THR_FCKEIG:   2.25D-01  2.30D-02  2.38D-04
 -----------------------------------------------------------------------------

 *** DIIS iteration number    6
 RDSUPM called. NFMAT, ISYMDM(1:NFMAT)                     1
                     1

 ITDIIS, energy, error norm, change in energy, scr.thr., difden:
@ DIIS iter.   6    -360.794076160        7.86630D-03   -7.93D-05  -20    F

 (DIIS_RED) Control Parameters C2DIIS =         F NEVC =    6


 (DIIS_RED) B matrix:

               Column   1     Column   2     Column   3     Column   4     Column   5     Column   6
       1      14.97646305
       2       0.96983032     0.88785622
       3       0.62312619     0.06072442     0.11547252
       4      -0.00279909     0.08151405    -0.00849024     0.01353435
       5       0.01391301     0.00644716     0.00488709     0.00069713     0.00056578
       6      -0.00262140    -0.00024725     0.00054399     0.00021779     0.00006057     0.00006188
    ==== End of matrix output ====

 DIIS C vector; C2DIIS = F, LAMBDA = -3.32D-05
    0.000489    0.007883   -0.024227   -0.083830    0.169744    0.929940
* Read MO coefficients from SIRIUS.RST with label "NEWORB  " and header info: 29Dec18  DIIS   6
      Virial theorem: -V/T =      2.001916
@      MULPOP N      -0.62; H       0.20; H       0.25; H       0.19; O      -0.69; O      -0.67; O      -0.61; O      -0.77; H       0.30; H       0.39; 
@             H       0.32; H       0.36; H       0.30; H       0.34; H       0.35; H       0.36; 

 DIIS Fock eigenvalues in symmetry 1
      -20.58956      -20.53617      -20.53143      -20.52532      -15.52770
       -1.37972       -1.31823       -1.31599       -1.29546       -1.15800
       -0.75071       -0.69087       -0.67348       -0.66658       -0.64545
       -0.62356       -0.61168       -0.57717       -0.56897       -0.55371
       -0.55248       -0.49863       -0.48855       -0.47434       -0.43717
        0.12816        0.17464        0.19364        0.23162        0.23496
        0.25973        0.29016        0.30305        0.35043        0.36551
        0.37486        0.48614        0.52846        0.55990        0.57193
        0.57671        0.58723        0.61382        0.62507        0.65019
        0.65688        0.72443        0.90823        0.93051        0.96235
        0.97051        0.98431        0.99991        1.01415        1.03230
        1.05444        1.07212        1.10033        1.11267        1.13901
        1.15929        1.17202        1.27140        1.31680        1.34588
        1.35116        1.38062        1.39444        1.47683        1.48457
        1.50306        1.52846        1.54492        1.57085        1.60048
        1.60247        1.61539        1.70506        1.72021        1.75645
        1.77594        1.83995        1.86059        1.88215        1.90649
        1.91722        1.95225        2.02500        2.03851        2.18194
        2.23916        2.24923        2.26457        2.27215        2.31396
        2.35390        2.37387        2.42208        2.52189        2.58966
        2.60346        2.64338        2.65464        2.69574        2.72673
        2.75656        2.79262        2.83235        2.84503        2.85554
        2.97618        3.01744        3.05519        3.20214        3.41263
        3.45613        3.46014        3.50115        3.50968        3.51475
        3.53857        3.54505        3.54982        3.57094        3.65099
        3.66356        3.68457        3.70802        4.00184        4.02123
        4.03628        4.05132        4.21272        4.21554        4.23402
        4.27304        4.62211        5.22694        5.28153        5.34114
        5.35469        5.38013        5.41824        5.70078        5.70562
        5.72372        5.75423        6.12593        6.12991        6.16030
        6.19283       37.10922       51.50525       51.53082       51.54150
       51.57494
 Time used in FCKEIG, thr_jaco:   4.00D-01  4.20D-02  3.44D-07
 CPU and wall times used in FCKEIG, THR_FCKEIG:   4.01D-01  4.20D-02  7.87D-05
 -----------------------------------------------------------------------------

 *** DIIS iteration number    7
 RDSUPM called. NFMAT, ISYMDM(1:NFMAT)                     1
                     1

 ITDIIS, energy, error norm, change in energy, scr.thr., difden:
@ DIIS iter.   7    -360.794082418        2.34673D-03   -6.26D-06  -20    F

 (DIIS_RED) Control Parameters C2DIIS =         F NEVC =    7


 (DIIS_RED) B matrix:

               Column   1     Column   2     Column   3     Column   4     Column   5     Column   6
       1      14.97646305
       2       0.96983032     0.88785622
       3       0.62312619     0.06072442     0.11547252
       4      -0.00279909     0.08151405    -0.00849024     0.01353435
       5       0.01391301     0.00644716     0.00488709     0.00069713     0.00056578
       6      -0.00262140    -0.00024725     0.00054399     0.00021779     0.00006057     0.00006188
       7       0.00067901     0.00000071     0.00006779    -0.00000399     0.00003487    -0.00000019

               Column   7
       7       0.00000551
    ==== End of matrix output ====

 DIIS C vector; C2DIIS = F, LAMBDA = -1.17D-06
   -0.000207   -0.001352    0.009442    0.022497   -0.156028   -0.001271    1.126918
* Read MO coefficients from SIRIUS.RST with label "NEWORB  " and header info: 29Dec18  DIIS   7
      Virial theorem: -V/T =      2.001882
@      MULPOP N      -0.62; H       0.20; H       0.25; H       0.19; O      -0.69; O      -0.67; O      -0.61; O      -0.77; H       0.30; H       0.39; 
@             H       0.32; H       0.36; H       0.30; H       0.34; H       0.35; H       0.36; 

 DIIS Fock eigenvalues in symmetry 1
      -20.58954      -20.53600      -20.53077      -20.52527      -15.52713
       -1.37967       -1.31815       -1.31568       -1.29538       -1.15781
       -0.75071       -0.69065       -0.67345       -0.66654       -0.64534
       -0.62348       -0.61167       -0.57696       -0.56900       -0.55363
       -0.55250       -0.49830       -0.48842       -0.47423       -0.43697
        0.12817        0.17467        0.19365        0.23166        0.23500
        0.25974        0.29018        0.30308        0.35045        0.36556
        0.37490        0.48620        0.52853        0.55997        0.57197
        0.57674        0.58728        0.61388        0.62510        0.65024
        0.65689        0.72450        0.90835        0.93058        0.96246
        0.97065        0.98434        1.00004        1.01424        1.03236
        1.05451        1.07223        1.10039        1.11273        1.13911
        1.15935        1.17210        1.27147        1.31691        1.34595
        1.35121        1.38069        1.39450        1.47693        1.48462
        1.50306        1.52846        1.54492        1.57092        1.60053
        1.60253        1.61549        1.70506        1.72024        1.75655
        1.77595        1.83997        1.86067        1.88216        1.90651
        1.91729        1.95222        2.02507        2.03858        2.18202
        2.23921        2.24925        2.26458        2.27217        2.31408
        2.35389        2.37387        2.42208        2.52198        2.58967
        2.60354        2.64345        2.65463        2.69578        2.72674
        2.75657        2.79260        2.83243        2.84503        2.85555
        2.97631        3.01760        3.05533        3.20228        3.41266
        3.45625        3.46038        3.50122        3.50972        3.51495
        3.53868        3.54511        3.55003        3.57122        3.65103
        3.66363        3.68487        3.70809        4.00189        4.02130
        4.03643        4.05150        4.21288        4.21564        4.23420
        4.27312        4.62244        5.22720        5.28158        5.34144
        5.35490        5.38037        5.41836        5.70081        5.70587
        5.72394        5.75433        6.12599        6.13000        6.16033
        6.19322       37.10977       51.50528       51.53088       51.54166
       51.57559
 Time used in FCKEIG, thr_jaco:   7.75D-01  8.30D-02  1.03D-07
 CPU and wall times used in FCKEIG, THR_FCKEIG:   7.75D-01  8.30D-02  2.35D-05
 -----------------------------------------------------------------------------

 *** DIIS iteration number    8
 RDSUPM called. NFMAT, ISYMDM(1:NFMAT)                     1
                     1

 ITDIIS, energy, error norm, change in energy, scr.thr., difden:
@ DIIS iter.   8    -360.794082984        3.32587D-04   -5.66D-07  -20    F

 (DIIS_RED) Control Parameters C2DIIS =         F NEVC =    8


 (DIIS_RED) B matrix:

               Column   1     Column   2     Column   3     Column   4     Column   5     Column   6
       1      14.97646305
       2       0.96983032     0.88785622
       3       0.62312619     0.06072442     0.11547252
       4      -0.00279909     0.08151405    -0.00849024     0.01353435
       5       0.01391301     0.00644716     0.00488709     0.00069713     0.00056578
       6      -0.00262140    -0.00024725     0.00054399     0.00021779     0.00006057     0.00006188
       7       0.00067901     0.00000071     0.00006779    -0.00000399     0.00003487    -0.00000019
       8       0.00001079    -0.00000174    -0.00000377     0.00000391     0.00000068     0.00000129

               Column   7     Column   8
       7       0.00000551
       8       0.00000025     0.00000011
    ==== End of matrix output ====

 DIIS C vector; C2DIIS = F, LAMBDA = -5.92D-08
    0.000013    0.000047   -0.000817   -0.001753    0.020659   -0.030374   -0.167872    1.180096
* Read MO coefficients from SIRIUS.RST with label "NEWORB  " and header info: 29Dec18  DIIS   8
      Virial theorem: -V/T =      2.001898
@      MULPOP N      -0.62; H       0.20; H       0.25; H       0.19; O      -0.69; O      -0.67; O      -0.61; O      -0.77; H       0.30; H       0.39; 
@             H       0.32; H       0.36; H       0.30; H       0.34; H       0.35; H       0.36; 

 DIIS Fock eigenvalues in symmetry 1
      -20.58953      -20.53603      -20.53080      -20.52526      -15.52716
       -1.37966       -1.31816       -1.31569       -1.29538       -1.15782
       -0.75069       -0.69066       -0.67345       -0.66653       -0.64535
       -0.62348       -0.61168       -0.57697       -0.56903       -0.55362
       -0.55251       -0.49830       -0.48842       -0.47422       -0.43698
        0.12817        0.17467        0.19365        0.23165        0.23500
        0.25974        0.29017        0.30308        0.35045        0.36556
        0.37489        0.48620        0.52852        0.55996        0.57197
        0.57674        0.58728        0.61387        0.62510        0.65024
        0.65688        0.72450        0.90834        0.93059        0.96246
        0.97064        0.98432        1.00003        1.01424        1.03236
        1.05451        1.07223        1.10039        1.11273        1.13911
        1.15935        1.17210        1.27147        1.31690        1.34595
        1.35121        1.38068        1.39449        1.47692        1.48461
        1.50305        1.52846        1.54491        1.57091        1.60052
        1.60253        1.61549        1.70506        1.72023        1.75654
        1.77595        1.83997        1.86066        1.88216        1.90651
        1.91728        1.95222        2.02506        2.03858        2.18202
        2.23920        2.24925        2.26457        2.27216        2.31408
        2.35389        2.37387        2.42207        2.52197        2.58967
        2.60353        2.64344        2.65462        2.69578        2.72674
        2.75657        2.79260        2.83242        2.84503        2.85554
        2.97630        3.01759        3.05532        3.20227        3.41266
        3.45625        3.46037        3.50120        3.50972        3.51494
[...]

 Principal values of diagonalized transition strength matrix:

             a.u.               
 1      -0.00000000
 2       0.00000000
 3       0.00024293

 Principal axis of diagonalized transition strength matrix:


               Column   1     Column   2     Column   3
       1      -0.30402079     0.79834938    -0.51981692
       2       0.94860266     0.30402647    -0.08786862
       3      -0.08788825     0.51981360     0.84974672
    ==== End of matrix output ====


 CCSD   oscillator strength matrix for state nr. 13 of symmetry 1
 CCSD  excitation energy:15.15775307


               Column   1     Column   2     Column   3
       1       0.00066332     0.00011213    -0.00108433
       2       0.00011213     0.00001893    -0.00018329
       3      -0.00108433    -0.00018329     0.00177256
    ==== End of matrix output ====

 Principal values of diagonalized oscillator strength matrix:

             a.u.               
 1      -0.00000003
 2       0.00000000
 3       0.00245483

 Principal axis of diagonalized oscillator strength matrix:


               Column   1     Column   2     Column   3
       1      -0.30402079     0.79834938    -0.51981692
       2       0.94860266     0.30402647    -0.08786862
       3      -0.08788825     0.51981360     0.84974672
    ==== End of matrix output ====


 CCSD  Transition strength matrix for state nr. 14 of symmetry 1
 CCSD  excitation energy:15.21293654

 Gauge: length

               Column   1     Column   2     Column   3
       1     1.728951D-05  -3.003772D-05  -2.184156D-05
       2    -3.003772D-05   5.218529D-05   3.794534D-05
       3    -2.184156D-05   3.794534D-05   2.759027D-05
    ==== End of matrix output ====

 Principal values of diagonalized transition strength matrix:

             a.u.               
 1      -0.00000000
 2      -0.00000000
 3       0.00009707

 Principal axis of diagonalized transition strength matrix:


               Column   1     Column   2     Column   3
       1       0.54076666     0.72763144    -0.42204727
       2      -0.26839986     0.62476675     0.73323122
       3       0.79720320    -0.28322957     0.53314920
    ==== End of matrix output ====


 CCSD   oscillator strength matrix for state nr. 14 of symmetry 1
 CCSD  excitation energy:15.21293654


               Column   1     Column   2     Column   3
       1     1.753495D-04  -3.046413D-04  -2.215162D-04
       2    -3.046413D-04   5.292610D-04   3.848400D-04
       3    -2.215162D-04   3.848400D-04   2.798193D-04
    ==== End of matrix output ====

 Principal values of diagonalized oscillator strength matrix:

             a.u.               
 1      -0.00000001
 2      -0.00000000
 3       0.00098444

 Principal axis of diagonalized oscillator strength matrix:


               Column   1     Column   2     Column   3
       1       0.54076666     0.72763144    -0.42204727
       2      -0.26839986     0.62476675     0.73323122
       3       0.79720320    -0.28322957     0.53314920
    ==== End of matrix output ====


 CCSD  Transition strength matrix for state nr. 15 of symmetry 1
 CCSD  excitation energy:15.28392094

 Gauge: length

               Column   1     Column   2     Column   3
       1     4.524938D-07   1.407961D-05  -1.106927D-05
       2     1.407961D-05   4.380647D-04  -3.444121D-04
       3    -1.106927D-05  -3.444121D-04   2.707783D-04
    ==== End of matrix output ====

 Principal values of diagonalized transition strength matrix:

             a.u.               
 1      -0.00000000
 2      -0.00000000
 3       0.00070930

 Principal axis of diagonalized transition strength matrix:


               Column   1     Column   2     Column   3
       1      -0.11284516     0.99329149     0.02525824
       2       0.61635330     0.05003826     0.78587835
       3       0.77934240     0.10425057    -0.61786507
    ==== End of matrix output ====


 CCSD   oscillator strength matrix for state nr. 15 of symmetry 1
 CCSD  excitation energy:15.28392094


               Column   1     Column   2     Column   3
       1       0.00000461     0.00014346    -0.00011279
       2       0.00014346     0.00446356    -0.00350931
       3      -0.00011279    -0.00350931     0.00275904
    ==== End of matrix output ====

 Principal values of diagonalized oscillator strength matrix:

             a.u.               
 1      -0.00000002
 2      -0.00000000
 3       0.00722723

 Principal axis of diagonalized oscillator strength matrix:


               Column   1     Column   2     Column   3
       1      -0.11284516     0.99329149     0.02525824
       2       0.61635330     0.05003826     0.78587835
       3       0.77934240     0.10425057    -0.61786507
    ==== End of matrix output ====

  Total time for    135 linear response residues:     125.25 seconds.
  

 *******************************************************************************
 *******************************************************************************
 *                                                                             *
 *                                                                             *
 *                   SUMMARY OF COUPLED CLUSTER CALCULATION                    *
 *                                                                             *
 *                                                                             *
 *******************************************************************************
 *******************************************************************************

                                                                                
                                                                                
            Total SCF   energy:                  -360.7940830004                
            Total MP2   energy:                  -361.8900116608                
            Total CCSD  energy:                  -361.9303034461                
                                                                                
                                                                                
            Total SCF   energy:                  -360.7940830004                
            Total RSTAR energy:                  -361.9303034461                
            Total CCSD  energy:                  -361.9304418262                
                                                                                
                                                                                
            Total SCF   energy:                  -360.7940830004                
            Total RSTAR energy:                  -361.9304418262                
            Total CCSD  energy:                  -361.9304431071                
                                                                                
                                                                                
            Total SCF   energy:                  -360.7940830004                
            Total RSTAR energy:                  -361.9304431071                
            Total CCSD  energy:                  -361.9304432313                
                                                                                
                                                                                
            Total SCF   energy:                  -360.7940830004                
            Total RSTAR energy:                  -361.9304432313                
            Total CCSD  energy:                  -361.9304432362                
                                                                                
                                                                                
            Total SCF   energy:                  -360.7940830004                
            Total RSTAR energy:                  -361.9304432362                
            Total CCSD  energy:                  -361.9304432364                
            CCSD Total  energy:                  -362.3574975315                
            CCSD E(QM/MM)     :                    -0.4217592304                
                                                                                
                                                                                
                                                                                
 +=============================================================================+
 |  sym. | Exci.  |        CCSD       Excitation energies            | ||T1||  |
 |(spin, |        +------------------------------------------------------------+
 | spat) |        |     Hartree    |       eV.      |     cm-1       |    %    |
 +=============================================================================+
 | ^1A   |    1   |    14.8232748  |     403.36183  |   3253332.742  |  88.55  |
 | ^1A   |    2   |    14.8877784  |     405.11706  |   3267489.646  |  88.96  |
 | ^1A   |    3   |    14.9019897  |     405.50377  |   3270608.669  |  88.96  |
 | ^1A   |    4   |    14.9566601  |     406.99143  |   3282607.438  |  88.52  |
 | ^1A   |    5   |    14.9595279  |     407.06946  |   3283236.841  |  88.42  |
 | ^1A   |    6   |    15.0122714  |     408.50468  |   3294812.700  |  88.22  |
 | ^1A   |    7   |    15.0160326  |     408.60703  |   3295638.195  |  88.28  |
 | ^1A   |    8   |    15.0545385  |     409.65483  |   3304089.259  |  88.30  |
 | ^1A   |    9   |    15.0779563  |     410.29206  |   3309228.876  |  88.17  |
 | ^1A   |   10   |    15.0875512  |     410.55315  |   3311334.715  |  88.33  |
 | ^1A   |   11   |    15.1120690  |     411.22032  |   3316715.753  |  88.21  |
 | ^1A   |   12   |    15.1361928  |     411.87676  |   3322010.311  |  88.14  |
 | ^1A   |   13   |    15.1577531  |     412.46344  |   3326742.236  |  88.29  |
 | ^1A   |   14   |    15.2129365  |     413.96506  |   3338853.609  |  88.08  |
 | ^1A   |   15   |    15.2839209  |     415.89664  |   3354432.884  |  88.41  |
 +=============================================================================+
                                                                                
                                                                                
     Total energies in Hartree:                                                 
             1 ^1A       -347.1124635032                                        
             2 ^1A       -347.0479599031                                        
             3 ^1A       -347.0337485848                                        
             4 ^1A       -346.9790781714                                        
             5 ^1A       -346.9762104010                                        
             6 ^1A       -346.9234669076                                        
             7 ^1A       -346.9197056761                                        
             8 ^1A       -346.8811997929                                        
             9 ^1A       -346.8577819725                                        
            10 ^1A       -346.8481870646                                        
            11 ^1A       -346.8236692527                                        
            12 ^1A       -346.7995454689                                        
            13 ^1A       -346.7779852324                                        
            14 ^1A       -346.7228017589                                        
            15 ^1A       -346.6518173596                                        
                                                                                
                                                                                
 +=============================================================================+
 |  sym. | Exci.  |        CCSD       Length   Gauge Oscillator Strength       |
 |(spin, |        +------------------------------------------------------------+
 | spat) |        | Dipole Strength(a.u.) | Oscillator strength  | Direction   |
 +=============================================================================+
 | ^1A   |    1   |        0.0005307      |      0.0052448       |  (Y,Z)      |
 | ^1A   |    2   |        0.0035168      |      0.0349045       |  (Y,Z)      |
 | ^1A   |    3   |        0.0031144      |      0.0309409       |  (Y,Z)      |
 | ^1A   |    4   |        0.0014486      |      0.0144442       |  (Y,Z)      |
 | ^1A   |    5   |        0.0008901      |      0.0088769       |  (Y,Z)      |
 | ^1A   |    6   |        0.0002044      |      0.0020454       |  (Y,Z)      |
 | ^1A   |    7   |        0.0003007      |      0.0030101       |  (Y,Z)      |
 | ^1A   |    8   |        0.0002452      |      0.0024613       |  (Y,Z)      |
 | ^1A   |    9   |        0.0001962      |      0.0019718       |  (Y,Z)      |
 | ^1A   |   10   |        0.0007873      |      0.0079194       |  (Y,Z)      |
 | ^1A   |   11   |        0.0002562      |      0.0025808       |  (Y,Z)      |
 | ^1A   |   12   |        0.0000464      |      0.0004678       |  (Y,Z)      |
 | ^1A   |   13   |        0.0002429      |      0.0024548       |  (Y,Z)      |
 | ^1A   |   14   |        0.0000971      |      0.0009844       |  (Y,Z)      |
 | ^1A   |   15   |        0.0007093      |      0.0072272       |  (Y,Z)      |
 +=============================================================================+

  1 a.u. =        27.21138 eV.  
  1 a.u. =    219474.62934 cm-1.
  

 *******************************************************************************
 *******************************************************************************
 *                                                                             *
 *                                                                             *
 *                      END OF COUPLED CLUSTER CALCULATION                     *
 *                                                                             *
 *                                                                             *
 *******************************************************************************
 *******************************************************************************


 CPU and wall time for CC :  550554.614   89391.004

 
     Date and time (Linux)  : Sun Dec 30 20:38:05 2018
     Host name              : n-62-29-6                               


                      .-------------------------------------.
                      | End of Coupled Cluster Section (CC) |
                      `-------------------------------------'

  Total CPU  time used in DALTON: 153 hours  6 minutes 38 seconds
  Total wall time used in DALTON:  24 hours 52 minutes  6 seconds

 
     Date and time (Linux)  : Sun Dec 30 20:38:05 2018
     Host name              : n-62-29-6                               
  

 +---------------------------------------------------------+ 
 | List of selected calculated molecular properties (a.u.) | 
 +---------------------------------------------------------+ 

  Properties are read from unit number                      4

 CCSD       properties :
 #  1 1 CCSD/MM  Ground state Energy =    -362.3574975315
 #  2 1 E_QM/MM  Ground state Energy =      -0.4217592304
 #  3 1 Sy: 1 Sp: 1 Exc:  1 E_tot:   -347.1124635032 w:     14.8232747979 E_grs:   -361.9357383010
 #  4 1 Exctot   Excited state Energy =    -347.1124635032
 #  5 1 Sy: 1 Sp: 1 Exc:  2 E_tot:   -347.0479599031 w:     14.8877783980 E_grs:   -361.9357383010
 #  6 1 Exctot   Excited state Energy =    -347.0479599031
 #  7 1 Sy: 1 Sp: 1 Exc:  3 E_tot:   -347.0337485848 w:     14.9019897163 E_grs:   -361.9357383010
 #  8 1 Exctot   Excited state Energy =    -347.0337485848
 #  9 1 Sy: 1 Sp: 1 Exc:  4 E_tot:   -346.9790781714 w:     14.9566601296 E_grs:   -361.9357383010
 # 10 1 Exctot   Excited state Energy =    -346.9790781714
 # 11 1 Sy: 1 Sp: 1 Exc:  5 E_tot:   -346.9762104010 w:     14.9595279000 E_grs:   -361.9357383010
 # 12 1 Exctot   Excited state Energy =    -346.9762104010
 # 13 1 Sy: 1 Sp: 1 Exc:  6 E_tot:   -346.9234669076 w:     15.0122713934 E_grs:   -361.9357383010
 # 14 1 Exctot   Excited state Energy =    -346.9234669076
 # 15 1 Sy: 1 Sp: 1 Exc:  7 E_tot:   -346.9197056761 w:     15.0160326249 E_grs:   -361.9357383010
 # 16 1 Exctot   Excited state Energy =    -346.9197056761
 # 17 1 Sy: 1 Sp: 1 Exc:  8 E_tot:   -346.8811997929 w:     15.0545385082 E_grs:   -361.9357383010
 # 18 1 Exctot   Excited state Energy =    -346.8811997929
 # 19 1 Sy: 1 Sp: 1 Exc:  9 E_tot:   -346.8577819725 w:     15.0779563286 E_grs:   -361.9357383010
 # 20 1 Exctot   Excited state Energy =    -346.8577819725
 # 21 1 Sy: 1 Sp: 1 Exc: 10 E_tot:   -346.8481870646 w:     15.0875512365 E_grs:   -361.9357383010
 # 22 1 Exctot   Excited state Energy =    -346.8481870646
 # 23 1 Sy: 1 Sp: 1 Exc: 11 E_tot:   -346.8236692527 w:     15.1120690483 E_grs:   -361.9357383010
 # 24 1 Exctot   Excited state Energy =    -346.8236692527
 # 25 1 Sy: 1 Sp: 1 Exc: 12 E_tot:   -346.7995454689 w:     15.1361928321 E_grs:   -361.9357383010
 # 26 1 Exctot   Excited state Energy =    -346.7995454689
 # 27 1 Sy: 1 Sp: 1 Exc: 13 E_tot:   -346.7779852324 w:     15.1577530687 E_grs:   -361.9357383010
 # 28 1 Exctot   Excited state Energy =    -346.7779852324
 # 29 1 Sy: 1 Sp: 1 Exc: 14 E_tot:   -346.7228017589 w:     15.2129365421 E_grs:   -361.9357383010
 # 30 1 Exctot   Excited state Energy =    -346.7228017589
 # 31 1 Sy: 1 Sp: 1 Exc: 15 E_tot:   -346.6518173596 w:     15.2839209414 E_grs:   -361.9357383010
 # 32 1 Exctot   Excited state Energy =    -346.6518173596
 # 33 1 |<O|XDIPLEN |i(14.823275)>| =     0.00055040
 # 35 1 |<O|XDIPLEN |i(14.887778)>| =     0.05878795
 # 37 1 |<O|XDIPLEN |i(14.901990)>| =     0.01426006
 # 39 1 |<O|XDIPLEN |i(14.956660)>| =     0.00585799
 # 41 1 |<O|XDIPLEN |i(14.959528)>| =     0.00844911
 # 43 1 |<O|XDIPLEN |i(15.012271)>| =     0.01417518
 # 45 1 |<O|XDIPLEN |i(15.016033)>| =     0.00360787
 # 47 1 |<O|XDIPLEN |i(15.054539)>| =     0.00215094
 # 49 1 |<O|XDIPLEN |i(15.077956)>| =     0.00653394
 # 51 1 |<O|XDIPLEN |i(15.087551)>| =     0.01794401
 # 53 1 |<O|XDIPLEN |i(15.112069)>| =     0.00614440
 # 55 1 |<O|XDIPLEN |i(15.136193)>| =     0.00452871
 # 57 1 |<O|XDIPLEN |i(15.157753)>| =     0.00810193
 # 59 1 |<O|XDIPLEN |i(15.212937)>| =     0.00415807
 # 61 1 |<O|XDIPLEN |i(15.283921)>| =     0.00067268
 # 63 1 |<O|YDIPLEN |i(14.823275)>| =     0.00898218
 # 65 1 |<O|YDIPLEN |i(14.887778)>| =     0.00524607
 # 67 1 |<O|YDIPLEN |i(14.901990)>| =     0.04191494
 # 69 1 |<O|YDIPLEN |i(14.956660)>| =     0.01409082
 # 71 1 |<O|YDIPLEN |i(14.959528)>| =     0.02830021
 # 73 1 |<O|YDIPLEN |i(15.012271)>| =     0.00044248
 # 75 1 |<O|YDIPLEN |i(15.016033)>| =     0.00084747
 # 77 1 |<O|YDIPLEN |i(15.054539)>| =     0.01440432
 # 79 1 |<O|YDIPLEN |i(15.077956)>| =     0.00969898
 # 81 1 |<O|YDIPLEN |i(15.087551)>| =     0.01363697
 # 83 1 |<O|YDIPLEN |i(15.112069)>| =     0.01448988
 # 85 1 |<O|YDIPLEN |i(15.136193)>| =     0.00206723
 # 87 1 |<O|YDIPLEN |i(15.157753)>| =     0.00136865
 # 89 1 |<O|YDIPLEN |i(15.212937)>| =     0.00722394
 # 91 1 |<O|YDIPLEN |i(15.283921)>| =     0.02093000
 # 93 1 |<O|ZDIPLEN |i(14.823275)>| =     0.02120742
 # 95 1 |<O|ZDIPLEN |i(14.887778)>| =     0.00576320
 # 97 1 |<O|ZDIPLEN |i(14.901990)>| =     0.03397397
 # 99 1 |<O|ZDIPLEN |i(14.956660)>| =     0.03486746
 #101 1 |<O|ZDIPLEN |i(14.959528)>| =     0.00421885
 #103 1 |<O|ZDIPLEN |i(15.012271)>| =     0.00180106
 #105 1 |<O|ZDIPLEN |i(15.016033)>| =     0.01693979
 #107 1 |<O|ZDIPLEN |i(15.054539)>| =     0.00575601
 #109 1 |<O|ZDIPLEN |i(15.077956)>| =     0.00770710
 #111 1 |<O|ZDIPLEN |i(15.087551)>| =     0.01671497
 #113 1 |<O|ZDIPLEN |i(15.112069)>| =     0.00290768
 #115 1 |<O|ZDIPLEN |i(15.136193)>| =     0.00464520
 #117 1 |<O|ZDIPLEN |i(15.157753)>| =     0.01324428
 #119 1 |<O|ZDIPLEN |i(15.212937)>| =     0.00525264
 #121 1 |<O|ZDIPLEN |i(15.283921)>| =     0.01645534

 THE_END   
