

     ************************************************************************
     *************** Dalton - An Electronic Structure Program ***************
     ************************************************************************

    This is output from DALTON release Dalton2017.alpha (2016)
         ( Web site: http://daltonprogram.org )

   ----------------------------------------------------------------------------

    NOTE:
     
    Dalton is an experimental code for the evaluation of molecular
    properties using (MC)SCF, DFT, CI, and CC wave functions.
    The authors accept no responsibility for the performance of
    the code or for the correctness of the results.
     
    The code (in whole or part) is provided under a licence and
    is not to be reproduced for further distribution without
    the written permission of the authors or their representatives.
     
    See the home page "http://daltonprogram.org" for further information.
     
    If results obtained with this code are published,
    the appropriate citations would be both of:
     
       K. Aidas, C. Angeli, K. L. Bak, V. Bakken, R. Bast,
       L. Boman, O. Christiansen, R. Cimiraglia, S. Coriani,
       P. Dahle, E. K. Dalskov, U. Ekstroem,
       T. Enevoldsen, J. J. Eriksen, P. Ettenhuber, B. Fernandez,
       L. Ferrighi, H. Fliegl, L. Frediani, K. Hald, A. Halkier,
       C. Haettig, H. Heiberg, T. Helgaker, A. C. Hennum,
       H. Hettema, E. Hjertenaes, S. Hoest, I.-M. Hoeyvik,
       M. F. Iozzi, B. Jansik, H. J. Aa. Jensen, D. Jonsson,
       P. Joergensen, J. Kauczor, S. Kirpekar,
       T. Kjaergaard, W. Klopper, S. Knecht, R. Kobayashi, H. Koch,
       J. Kongsted, A. Krapp, K. Kristensen, A. Ligabue,
       O. B. Lutnaes, J. I. Melo, K. V. Mikkelsen, R. H. Myhre,
       C. Neiss, C. B. Nielsen, P. Norman, J. Olsen,
       J. M. H. Olsen, A. Osted, M. J. Packer, F. Pawlowski,
       T. B. Pedersen, P. F. Provasi, S. Reine, Z. Rinkevicius,
       T. A. Ruden, K. Ruud, V. Rybkin, P. Salek, C. C. M. Samson,
       A. Sanchez de Meras, T. Saue, S. P. A. Sauer,
       B. Schimmelpfennig, K. Sneskov, A. H. Steindal,
       K. O. Sylvester-Hvid, P. R. Taylor, A. M. Teale,
       E. I. Tellgren, D. P. Tew, A. J. Thorvaldsen, L. Thoegersen,
       O. Vahtras, M. A. Watson, D. J. D. Wilson, M. Ziolkowski
       and H. Agren,
       "The Dalton quantum chemistry program system",
       WIREs Comput. Mol. Sci. 2014, 4:269–284 (doi: 10.1002/wcms.1172)
     
    and
     
       Dalton, a Molecular Electronic Structure Program,
       Release Dalton2017.alpha (2016), see http://daltonprogram.org
   ----------------------------------------------------------------------------

    Authors in alphabetical order (major contribution(s) in parenthesis):

  Kestutis Aidas,           Vilnius University,           Lithuania   (QM/MM)
  Celestino Angeli,         University of Ferrara,        Italy       (NEVPT2)
  Keld L. Bak,              UNI-C,                        Denmark     (AOSOPPA, non-adiabatic coupling, magnetic properties)
  Vebjoern Bakken,          University of Oslo,           Norway      (DALTON; geometry optimizer, symmetry detection)
  Radovan Bast,             UiT The Arctic U. of Norway,  Norway      (DALTON installation and execution frameworks)
  Pablo Baudin,             University of Valencia,       Spain       (Cholesky excitation energies)
  Linus Boman,              NTNU,                         Norway      (Cholesky decomposition and subsystems)
  Ove Christiansen,         Aarhus University,            Denmark     (CC module)
  Renzo Cimiraglia,         University of Ferrara,        Italy       (NEVPT2)
  Sonia Coriani,            University of Trieste,        Italy       (CC module, MCD in RESPONS)
  Janusz Cukras,            University of Trieste,        Italy       (MChD in RESPONS)
  Paal Dahle,               University of Oslo,           Norway      (Parallelization)
  Erik K. Dalskov,          UNI-C,                        Denmark     (SOPPA)
  Thomas Enevoldsen,        Univ. of Southern Denmark,    Denmark     (SOPPA)
  Janus J. Eriksen,         Aarhus University,            Denmark     (Polarizable embedding model, TDA)
  Rasmus Faber,             University of Copenhagen,     Denmark     (Vib.avg. NMR with SOPPA, parallel AO-SOPPA)
  Berta Fernandez,          U. of Santiago de Compostela, Spain       (doublet spin, ESR in RESPONS)
  Lara Ferrighi,            Aarhus University,            Denmark     (PCM Cubic response)
  Heike Fliegl,             University of Oslo,           Norway      (CCSD(R12))
  Luca Frediani,            UiT The Arctic U. of Norway,  Norway      (PCM)
  Bin Gao,                  UiT The Arctic U. of Norway,  Norway      (Gen1Int library)
  Christof Haettig,         Ruhr-University Bochum,       Germany     (CC module)
  Kasper Hald,              Aarhus University,            Denmark     (CC module)
  Asger Halkier,            Aarhus University,            Denmark     (CC module)
  Frederik Beyer Hansen,    University of Copenhagen,     Denmark     (Parallel AO-SOPPA)
  Erik D. Hedegaard,        Univ. of Southern Denmark,    Denmark     (Polarizable embedding model, QM/MM)
  Hanne Heiberg,            University of Oslo,           Norway      (geometry analysis, selected one-electron integrals)
  Trygve Helgaker,          University of Oslo,           Norway      (DALTON; ABACUS, ERI, DFT modules, London, and much more)
  Alf Christian Hennum,     University of Oslo,           Norway      (Parity violation)
  Hinne Hettema,            University of Auckland,       New Zealand (quadratic response in RESPONS; SIRIUS supersymmetry)
  Eirik Hjertenaes,         NTNU,                         Norway      (Cholesky decomposition)
  Pi A. B. Haase,           University of Copenhagen,     Denmark     (Triplet AO-SOPPA)
  Maria Francesca Iozzi,    University of Oslo,           Norway      (RPA)
  Brano Jansik              Technical Univ. of Ostrava    Czech Rep.  (DFT cubic response)
  Hans Joergen Aa. Jensen,  Univ. of Southern Denmark,    Denmark     (DALTON; SIRIUS, RESPONS, ABACUS modules, London, and much more)
  Dan Jonsson,              UiT The Arctic U. of Norway,  Norway      (cubic response in RESPONS module)
  Poul Joergensen,          Aarhus University,            Denmark     (RESPONS, ABACUS, and CC modules)
  Maciej Kaminski,          University of Warsaw,         Poland      (CPPh in RESPONS)
  Joanna Kauczor,           Linkoeping University,        Sweden      (Complex polarization propagator (CPP) module)
  Sheela Kirpekar,          Univ. of Southern Denmark,    Denmark     (Mass-velocity & Darwin integrals)
  Wim Klopper,              KIT Karlsruhe,                Germany     (R12 code in CC, SIRIUS, and ABACUS modules)
  Stefan Knecht,            ETH Zurich,                   Switzerland (Parallel CI and MCSCF)
  Rika Kobayashi,           Australian National Univ.,    Australia   (DIIS in CC, London in MCSCF)
  Henrik Koch,              NTNU,                         Norway      (CC module, Cholesky decomposition)
  Jacob Kongsted,           Univ. of Southern Denmark,    Denmark     (Polarizable embedding model, QM/MM)
  Andrea Ligabue,           University of Modena,         Italy       (CTOCD, AOSOPPA)
  Nanna H. List             Univ. of Southern Denmark,    Denmark     (Polarizable embedding model)
  Ola B. Lutnaes,           University of Oslo,           Norway      (DFT Hessian)
  Juan I. Melo,             University of Buenos Aires,   Argentina   (LRESC, Relativistic Effects on NMR Shieldings)
  Kurt V. Mikkelsen,        University of Copenhagen,     Denmark     (MC-SCRF and QM/MM)
  Rolf H. Myhre,            NTNU,                         Norway      (Cholesky, subsystems and ECC2)
  Christian Neiss,          Univ. Erlangen-Nuernberg,     Germany     (CCSD(R12))
  Christian B. Nielsen,     University of Copenhagen,     Denmark     (QM/MM)
  Patrick Norman,           Linkoeping University,        Sweden      (Cubic response and complex frequency response in RESPONS)
  Jeppe Olsen,              Aarhus University,            Denmark     (SIRIUS CI/density modules)
  Jogvan Magnus H. Olsen,   Univ. of Southern Denmark,    Denmark     (Polarizable embedding model, QM/MM)
  Anders Osted,             Copenhagen University,        Denmark     (QM/MM)
  Martin J. Packer,         University of Sheffield,      UK          (SOPPA)
  Filip Pawlowski,          Kazimierz Wielki University,  Poland      (CC3)
  Morten N. Pedersen,       Univ. of Southern Denmark,    Denmark     (Polarizable embedding model)
  Thomas B. Pedersen,       University of Oslo,           Norway      (Cholesky decomposition)
  Patricio F. Provasi,      University of Northeastern,   Argentina   (Analysis of coupling constants in localized orbitals)
  Zilvinas Rinkevicius,     KTH Stockholm,                Sweden      (open-shell DFT, ESR)
  Elias Rudberg,            KTH Stockholm,                Sweden      (DFT grid and basis info)
  Torgeir A. Ruden,         University of Oslo,           Norway      (Numerical derivatives in ABACUS)
  Kenneth Ruud,             UiT The Arctic U. of Norway,  Norway      (DALTON; ABACUS magnetic properties and much more)
  Pawel Salek,              KTH Stockholm,                Sweden      (DALTON; DFT code)
  Claire C. M. Samson       University of Karlsruhe       Germany     (Boys localization, r12 integrals in ERI)
  Alfredo Sanchez de Meras, University of Valencia,       Spain       (CC module, Cholesky decomposition)
  Trond Saue,               Paul Sabatier University,     France      (direct Fock matrix construction)
  Stephan P. A. Sauer,      University of Copenhagen,     Denmark     (SOPPA(CCSD), SOPPA prop., AOSOPPA, vibrational g-factors)
  Bernd Schimmelpfennig,    Forschungszentrum Karlsruhe,  Germany     (AMFI module)
  Kristian Sneskov,         Aarhus University,            Denmark     (Polarizable embedding model, QM/MM)
  Arnfinn H. Steindal,      UiT The Arctic U. of Norway,  Norway      (parallel QM/MM, Polarizable embedding model)
  Casper Steinmann,         Univ. of Southern Denmark,    Denmark     (QFIT, Polarizable embedding model)
  K. O. Sylvester-Hvid,     University of Copenhagen,     Denmark     (MC-SCRF)
  Peter R. Taylor,          VLSCI/Univ. of Melbourne,     Australia   (Symmetry handling ABACUS, integral transformation)
  Andrew M. Teale,          University of Nottingham,     England     (DFT-AC, DFT-D)
  David P. Tew,             University of Bristol,        England     (CCSD(R12))
  Olav Vahtras,             KTH Stockholm,                Sweden      (triplet response, spin-orbit, ESR, TDDFT, open-shell DFT)
  David J. Wilson,          La Trobe University,          Australia   (DFT Hessian and DFT magnetizabilities)
  Hans Agren,               KTH Stockholm,                Sweden      (SIRIUS module, RESPONS, MC-SCRF solvation model)
 --------------------------------------------------------------------------------

     Date and time (Linux)  : Tue Nov 27 10:21:12 2018
     Host name              : n-62-24-1                               

 * Work memory size             :  1280000000 =  9.537 gigabytes.

 * Directories for basis set searches:
   1) /zhome/37/3/129401/NH3NH4/CCSD/AIMD_SAMPLING/nh3_4h2o
   2) /zhome/9a/4/124800/source/dalton/build-mlcc/basis


Compilation information
-----------------------

 Who compiled             | rfaber
 Host                     | hpclogin1
 System                   | Linux-2.6.32-696.1.1.el6.x86_64
 CMake generator          | Unix Makefiles
 Processor                | x86_64
 64-bit integers          | ON
 MPI                      | OFF
 Fortran compiler         | /opt/intel/2016update2/compilers_and_libraries_201
                          | 6.2.181/linux/bin/intel64/ifort
 Fortran compiler version | ifort (IFORT) 16.0.2 20160204
 C compiler               | /opt/intel/2016update2/compilers_and_libraries_201
                          | 6.2.181/linux/bin/intel64/icc
 C compiler version       | icc (ICC) 16.0.2 20160204
 C++ compiler             | /opt/intel/2016update2/compilers_and_libraries_201
                          | 6.2.181/linux/bin/intel64/icpc
 C++ compiler version     | icpc (ICC) 16.0.2 20160204
 Static linking           | OFF
 Last Git revision        | bb4d1599ca5680a9f3980451fc8bbefdba436d59
 Git branch               | mlcc
 Configuration time       | 2017-06-13 16:11:03.928841


   Content of the .dal input file
 ----------------------------------

**DALTON
.RUN WAVE FUNCTIONS
*QMMM
.QMMM
**INTEGRALS
.DIPLEN
**WAVE FUNCTIONS
.CC
*PRINT
!To check the origin of excit
.PRINTL
   0 11
*SCF INP
.THRESH
1.0D-7
*CC INP
.CCSD
.THRLEQ
 1.0D-9
.THRENR
 1.0D-10
.FROIMP
4
0
.PRINT
 1
.MAX IT
 1200
.MAXRED
 1200
.MXLRV
1199
*CCSLV
.CCMM
.MXSLIT
200
.MXINIT
4 5
*CCEXCI
.NCCEXC
 15
.CVSEPARA
1
1
*CCLRSD
.DIPOLE
**END OF DALTON INPUT


   Content of the .mol file
 ----------------------------

ATOMBASIS


Atomtypes=4 Charge=0 Nosymm Angstrom
   7.00000    1    Basis=6-311G**
N          0.000000        0.000000        0.000000
   1.00000    3    Basis=6-311G**
H          0.137083       -0.630978        0.831294
H         -0.569403        0.797485        0.336068
H         -0.540444       -0.656262       -0.606600
   8.00000    4    Basis=6-311G**
O          0.087023       -1.988942       -2.316130
O          1.121593       -2.772020        0.668639
O          2.504952        0.655079       -0.937886
O         -0.807307        2.576707        2.420496
   1.00000    8    Basis=6-311G**
H         -0.660704       -2.059985       -3.001706
H          0.504915       -2.881887       -2.227364
H          1.858304       -2.699929        1.288960
H          1.498342       -3.081862       -0.176310
H          2.886678        0.904774       -0.062946
H          1.561798        0.360080       -0.668553
H         -1.278724        3.161857        3.078626
H          0.125724        2.590544        2.730676


       *******************************************************************
       *********** Output from DALTON general input processing ***********
       *******************************************************************

 --------------------------------------------------------------------------------
   Overall default print level:    0
   Print level for DALTON.STAT:    1

    HERMIT 1- and 2-electron integral sections will be executed
    "Old" integral transformation used (limited to max 255 basis functions)
    Wave function sections will be executed (SIRIUS module)
 --------------------------------------------------------------------------------


 Changes of defaults for *QMMM  :
 --------------------------------

 +------------------+
 |  WORD: | CHANGE: |
 +------------------+
 |   QMMM |       T |
 +------------------+
 


   ****************************************************************************
   *************** Output of molecule and basis set information ***************
   ****************************************************************************


    The two title cards from your ".mol" input:
    ------------------------------------------------------------------------
 1:                                                                         
 2:                                                                         
    ------------------------------------------------------------------------

  Coordinates are entered in Angstrom and converted to atomic units.
          - Conversion factor : 1 bohr = 0.52917721 A

  Atomic type no.    1
  --------------------
  Nuclear charge:   7.00000
  Number of symmetry independent centers:    1
  Number of basis sets to read;    2
  The basis set is "6-311G**" from the basis set library.
  Basis set file used for this atomic type with Z =   7 :
     "/zhome/9a/4/124800/source/dalton/build-mlcc/basis/6-311G**"

  Info about the basis set file: your basis has no documentation.
  Basis set: 6-311G**                                                                        

  Atomic type no.    2
  --------------------
  Nuclear charge:   1.00000
  Number of symmetry independent centers:    3
  Number of basis sets to read;    2
  The basis set is "6-311G**" from the basis set library.
  Basis set file used for this atomic type with Z =   1 :
     "/zhome/9a/4/124800/source/dalton/build-mlcc/basis/6-311G**"

  Info about the basis set file: your basis has no documentation.
  Basis set: 6-311G**                                                                        

  Atomic type no.    3
  --------------------
  Nuclear charge:   8.00000
  Number of symmetry independent centers:    4
  Number of basis sets to read;    2
  The basis set is "6-311G**" from the basis set library.
  Basis set file used for this atomic type with Z =   8 :
     "/zhome/9a/4/124800/source/dalton/build-mlcc/basis/6-311G**"

  Info about the basis set file: your basis has no documentation.
  Basis set: 6-311G**                                                                        

  Atomic type no.    4
  --------------------
  Nuclear charge:   1.00000
  Number of symmetry independent centers:    8
  Number of basis sets to read;    2
  The basis set is "6-311G**" from the basis set library.
  Basis set file used for this atomic type with Z =   1 :
     "/zhome/9a/4/124800/source/dalton/build-mlcc/basis/6-311G**"

  Info about the basis set file: your basis has no documentation.
  Basis set: 6-311G**                                                                        


                         SYMGRP: Point group information
                         -------------------------------

@    Point group: C1 


                                 Isotopic Masses
                                 ---------------

                           N          14.003074
                           H           1.007825
                           H           1.007825
                           H           1.007825
                           O          15.994915
                           O          15.994915
                           O          15.994915
                           O          15.994915
                           H           1.007825
                           H           1.007825
                           H           1.007825
                           H           1.007825
                           H           1.007825
                           H           1.007825
                           H           1.007825
                           H           1.007825

                       Total mass:    89.068809 amu
                       Natural abundance:  98.514 %

 Center-of-mass coordinates (a.u.):    1.104364   -0.608659   -0.023406


  Atoms and basis sets
  --------------------

  Number of atom types :    4
  Total number of atoms:   16

  label    atoms   charge   prim   cont     basis
  ----------------------------------------------------------------------
  N           1    7.0000    31    18      [11s5p1d|4s3p1d]                                   
  H           3    1.0000     8     6      [5s1p|3s1p]                                        
  O           4    8.0000    31    18      [11s5p1d|4s3p1d]                                   
  H           8    1.0000     8     6      [5s1p|3s1p]                                        
  ----------------------------------------------------------------------
  total:     16   50.0000   243   156
  ----------------------------------------------------------------------
  Spherical harmonic basis used.

  Threshold for neglecting AO integrals:  1.00D-12


  Cartesian Coordinates (a.u.)
  ----------------------------

  Total number of coordinates:   48
  N       :     1  x   0.0000000000    2  y   0.0000000000    3  z   0.0000000000
  H       :     4  x   0.2590493264    5  y  -1.1923756109    6  z   1.5709179894
  H       :     7  x  -1.0760157247    8  y   1.5070282388    9  z   0.6350764794
  H       :    10  x  -1.0212911459   11  y  -1.2401554462   12  z  -1.1463078674
  O       :    13  x   0.1644496366   14  y  -3.7585556585   15  z  -4.3768513699
  O       :    16  x   2.1195035937   17  y  -5.2383586130   18  z   1.2635445865
  O       :    19  x   4.7336732363   20  y   1.2379199002   21  z  -1.7723476765
  O       :    22  x  -1.5255891288   23  y   4.8692705344   24  z   4.5740745266
  H       :    25  x  -1.2485496097   26  y  -3.8928074716   27  z  -5.6724022478
  H       :    28  x   0.9541510664   29  y  -5.4459771532   30  z  -4.2091079407
  H       :    31  x   3.5116856170   32  y  -5.1021263669   33  z   2.4357813861
  H       :    34  x   2.8314560216   35  y  -5.8238751350   36  z  -0.3331776131
  H       :    37  x   5.4550308310   38  y   1.7097750650   39  z  -0.1189507007
  H       :    40  x   2.9513704826   41  y   0.6804525831   42  z  -1.2633820700
  H       :    43  x  -2.4164381495   44  y   5.9750437764   45  z   5.8177599813
  H       :    46  x   0.2375839273   47  y   4.8954186747   48  z   5.1602297761


   Interatomic separations (in Angstrom):
   --------------------------------------

            N           H           H           H           O           O     
            ------      ------      ------      ------      ------      ------
 N     :    0.000000
 H     :    1.052604    0.000000
 H     :    1.035927    1.668795    0.000000
 H     :    1.044377    1.589724    1.732871    0.000000
 O     :    3.054165    3.428243    3.902464    2.256600    0.000000
 O     :    3.064171    2.362155    3.963765    2.977421    3.254596    0.000000
 O     :    2.753823    3.223468    3.330900    3.332237    3.838852    4.029840
 O     :    3.626288    3.702253    2.750831    4.436960    6.639322    5.949667
 H     :    3.700041    4.167783    4.394793    2.778747    1.016935    4.141861
 H     :    3.677140    3.815400    4.611195    2.945006    0.989881    2.962971
 H     :    3.521978    2.729948    4.362759    3.677460    4.079168    0.965784
 H     :    3.431324    2.979115    4.425769    3.197707    2.786597    0.975644
 H     :    3.025804    3.273908    3.480692    3.804939    4.613946    4.143616
 H     :    1.736616    2.293807    2.396373    2.335853    3.226046    3.433936
 H     :    4.594607    4.630400    3.689853    5.357610    7.582835    6.839624
 H     :    3.766074    3.739784    3.071223    4.703503    6.814942    5.831024

            O           O           H           H           H           H     
            ------      ------      ------      ------      ------      ------
 O     :    0.000000
 O     :    5.093373    0.000000
 H     :    4.653204    7.135873    0.000000
 H     :    4.262984    7.288400    1.622897    0.000000
 H     :    4.078367    6.019032    5.016447    3.772175    0.000000
 H     :    3.944362    6.639188    3.699807    2.287730    1.556426    0.000000
 H     :    0.986703    4.754826    5.478141    4.969537    3.984857    4.222984
 H     :    1.024258    4.479768    4.029868    3.749299    3.644644    3.477541
 H     :    6.060735    0.998884    8.038658    8.237824    6.885084    7.569064
 H     :    4.781746    0.983336    7.423348    7.394150    5.750607    6.520034

            H           H           H           H     
            ------      ------      ------      ------
 H     :    0.000000
 H     :    1.555236    0.000000
 H     :    5.684582    5.473561    0.000000
 H     :    4.274226    4.311848    1.555616    0.000000


  Max    interatomic separation is    8.2378 Angstrom (   15.5672 Bohr)
  between atoms   15 and   10, "H     " and "H     ".

  Min HX interatomic separation is    0.9658 Angstrom (    1.8251 Bohr)

  Min YX interatomic separation is    2.7538 Angstrom (    5.2040 Bohr)


  Bond distances (Angstrom):
  --------------------------

                  atom 1     atom 2       distance
                  ------     ------       --------
  bond distance:  H          N            1.052604
  bond distance:  H          N            1.035927
  bond distance:  H          N            1.044377
  bond distance:  H          O            1.016935
  bond distance:  H          O            0.989881
  bond distance:  H          O            0.965784
  bond distance:  H          O            0.975644
  bond distance:  H          O            0.986703
  bond distance:  H          O            1.024258
  bond distance:  H          O            0.998884
  bond distance:  H          O            0.983336


  Bond angles (degrees):
  ----------------------

                  atom 1     atom 2     atom 3         angle
                  ------     ------     ------         -----
  bond angle:     H          N          H            106.072
  bond angle:     H          N          H             98.593
  bond angle:     H          N          H            112.814
  bond angle:     H          O          H            107.929
  bond angle:     H          O          H            106.583
  bond angle:     H          O          H            101.300
  bond angle:     H          O          H            103.399




 Principal moments of inertia (u*A**2) and principal axes
 --------------------------------------------------------

   IA     221.197408         -0.218981    0.782440    0.582954
   IB     564.349994         -0.524325   -0.598225    0.605979
   IC     602.975218          0.822880   -0.172959    0.541253


 Rotational constants
 --------------------

               A                   B                   C

           2284.7420            895.5064            838.1422 MHz
            0.076211            0.029871            0.027957 cm-1


@  Nuclear repulsion energy :  184.061974064856 Hartree


                     .---------------------------------------.
                     | Starting in Integral Section (HERMIT) |
                     `---------------------------------------'



 ***************************************************************************************
 ****************** Output from **INTEGRALS input processing (HERMIT) ******************
 ***************************************************************************************



    *************************************************************************
    ****************** Output from HERMIT input processing ******************
    *************************************************************************


 Default print level:        1

 * Nuclear model: Point charge

 Calculation of one- and two-electron Hamiltonian integrals.

 The following one-electron property integrals are calculated as requested:
          - overlap integrals
          - dipole length integrals

 Center of mass  (bohr):      1.104363937796     -0.608659032386     -0.023406052887
 Operator center (bohr):      0.000000000000      0.000000000000      0.000000000000
 Gauge origin    (bohr):      0.000000000000      0.000000000000      0.000000000000
 Dipole origin   (bohr):      0.000000000000      0.000000000000      0.000000000000
 
  *********************************** 
  QMMM electrostatic potential: 
  Multipole order                                    0
  Isotropic polarization  
  *********************************** 
 
  ---------------- 
  QMMM information 
  ---------------- 
 
  MM coordinates in au 
  -------------------- 
     1     -7.797654      4.149670     10.005573
     2     -9.034395      4.011686      8.703771
     3     -8.749402      4.939863     11.385279
     4     -2.570893    -10.484781      3.034768
     5     -1.826337    -11.395258      4.496380
     6     -2.691269     -8.721360      3.573807
     7     -0.259017      2.066412     11.251210
     8     -0.369642      0.613216     10.043252
     9      0.553567      1.658902     12.934576
    10     -5.590692      7.521238      7.140173
    11     -6.517051      6.200762      8.147558
    12     -6.403278      9.074312      7.631602
    13     -2.204963     -5.211097      3.640350
    14     -0.804929     -5.232037      2.419832
    15     -1.520547     -4.092045      4.862462
    16     11.099584      2.561308     -0.359008
    17     11.562269      4.195436     -1.209466
    18     11.220742      0.967288     -1.327791
    19     -8.078957      5.914342     -6.317564
    20     -6.239668      5.586261     -6.081836
    21     -8.645682      4.025925     -6.583347
    22      5.377703    -10.637816     11.320255
    23      4.110986     -9.389769     11.764469
    24      5.297966    -10.577957      9.402015
    25     -9.523836     -8.721632     11.405820
    26    -10.236395     -7.163515     10.838267
    27    -10.978946     -9.272828     12.572737
    28      1.549557      0.632486     -7.084462
    29      2.490249      1.949719     -6.177895
    30      1.228683     -0.770079     -5.875000
    31      9.944744     -6.823667      0.417410
    32     11.189953     -5.704977     -0.289028
    33      8.922928     -7.524612     -1.071118
    34      4.113257      4.755925     -5.034098
    35      5.469005      5.944071     -5.545131
    36      4.710585      3.835583     -3.469804
    37     -6.683644      1.127299     -0.434815
    38     -5.506749      2.567749     -0.787124
    39     -8.006737      1.943668      0.590052
    40     -6.469341     11.489835     -0.259652
    41     -5.072803     12.180131      0.749318
    42     -5.806042     11.266842     -1.947384
    43     11.513285      4.565852      6.503791
    44     10.896633      6.018970      7.483109
    45     10.061696      3.516032      6.045504
    46    -11.266343     -1.784663     -3.639794
    47    -12.970167     -2.113084     -4.462532
    48    -10.396867     -3.551922     -3.727676
    49     -2.167170    -10.014241     10.997405
    50     -1.296887    -11.192761      9.852439
    51     -3.475187    -11.251478     11.690944
    52     -8.558766      6.323026      2.725261
    53     -7.038104      6.642828      3.843801
    54     -9.909467      6.164585      4.007962
    55      1.392603     -7.963810     -9.970900
    56      1.532080     -6.120067     -9.772089
    57     -0.313373     -8.307376    -10.638153
    58      5.531242    -10.234859      5.634337
    59      7.212465    -10.859476      5.157314
    60      5.658413     -8.400016      5.384102
    61     -8.829783     -5.382911      5.064506
    62     -7.989692     -4.393492      3.803633
    63     -9.937310     -6.585869      4.198072
    64      5.728463      5.740011     11.414428
    65      4.388142      6.809165     12.239102
    66      6.103375      4.262778     12.581536
    67     -8.051781    -11.720180      7.699802
    68     -8.933903    -11.149416      6.139244
    69     -8.920182    -10.702543      9.088318
    70      9.924526     10.385563      4.270426
    71     11.396923     11.376648      3.628359
    72     10.300472      9.962069      6.075864
    73      4.996222     -0.705121      5.481959
    74      5.919384     -0.879061      7.064828
    75      5.945789      0.576950      4.488198
    76      1.206838      9.649482     -4.950646
    77      1.580208      9.137752     -6.703477
    78      1.525805      8.049355     -4.069894
    79      7.174513     -1.916759     -5.498357
    80      6.035965     -3.148856     -6.084319
    81      6.431411     -1.116490     -4.058268
    82     -6.310493     -3.929540      0.570066
    83     -4.699592     -4.275254      1.303333
    84     -6.107376     -2.165269      0.147482
    85      9.775241      8.611431      9.244907
    86      8.340988      7.596548      9.914870
    87     11.056893      8.660668     10.709583
    88      7.088051      2.783379      2.810786
    89      6.808404      4.668342      2.719684
    90      8.761180      2.625672      1.807829
    91      8.518107      1.781135     -9.030090
    92     10.400355      2.019157     -8.850871
    93      8.025814      1.020507     -7.496353
    94      2.257399     -8.632303     -5.103438
    95      1.681320     -8.730854     -6.922554
    96      1.959918    -10.374449     -4.510805
    97    -10.073412      9.418463     -9.717293
    98     -9.638894      8.056061     -8.439626
    99    -11.442845     10.423705     -9.022195
   100    -10.880442      7.223544     -1.749709
   101     -9.474760      7.444629     -2.914852
   102    -10.041028      7.160550     -0.044136
   103      9.375139    -10.818319     -9.230483
   104      8.222195    -10.849834    -10.716023
   105      8.777889     -9.784968     -7.883482
   106      3.487694     -3.379556     -9.917855
   107      4.972616     -3.403930    -11.013993
   108      3.113951     -1.627708     -9.455696
   109     -9.154438     -6.395978     -2.936483
   110     -7.841107     -5.681749     -1.816091
   111     -8.126877     -7.069195     -4.304993
   112      2.278562      9.081107    -10.037993
   113      3.374350     10.485045    -10.457646
   114      0.825629      9.137459    -11.106349
   115     -2.869861      7.049330     -0.016418
   116     -2.575255      6.062234      1.563270
   117     -4.237206      8.230759      0.088284
   118     -4.362081     10.506176     -4.958619
   119     -4.822385     10.095679     -6.774882
   120     -2.556764     10.257144     -5.083210
   121      7.754639     -9.119450     -3.927374
   122      7.876779    -11.003102     -3.807872
   123      6.004671     -8.736219     -4.470094
   124     -2.745747      3.611958     -5.662413
   125     -1.934864      4.881869     -4.704919
   126     -1.446003      2.558956     -6.307849
   127      6.505747      7.540742      1.686717
   128      4.753187      8.457581      1.764885
   129      7.882787      8.571556      2.367203
   130      7.285612     -1.730579      9.964363
   131      9.026043     -2.443886      9.800596
   132      7.438750     -0.509878     11.410994
   133    -10.281713    -10.042641      2.314684
   134     -9.051378    -10.578139      0.914382
   135    -11.613552     -9.301599      1.400013
   136      2.708422      5.026985      7.030924
   137      4.211128      4.048950      6.515341
   138      2.907251      4.883064      8.822631
   139     -9.371913      1.389538     -7.377512
   140     -9.845001      0.174305     -6.085678
   141     -8.578622      0.247244     -8.656231
   142     -0.292195     -0.522445      6.470216
   143     -0.958598      1.029324      5.739231
   144      1.537007     -0.404263      6.194418
   145      8.142010      8.867547     -3.494293
   146      7.197245      8.842985     -1.865409
   147      9.803582      8.162776     -3.127438
   148     -5.116471     10.161038    -10.149649
   149     -4.287592      8.865098    -11.049187
   150     -6.945909     10.037808    -10.572044
   151      1.876863      9.462048      1.147553
   152      0.210876      8.708586      0.443135
   153      1.512346     11.261197      1.670004
   154     -3.864843     -3.465788     -7.713495
   155     -4.615140     -2.499386     -9.027851
   156     -4.799453     -5.093541     -7.778141
   157    -11.447173     -4.013028      9.856674
   158    -10.163325     -2.877983     10.682898
   159    -10.858240     -4.072948      8.120864
   160      6.507965     -5.535471      4.058933
   161      5.846762     -3.807904      4.424508
   162      7.816412     -5.316452      2.794119
   163      0.861524     10.846501      7.263769
   164      1.383019      9.228461      6.692129
   165      2.078876     12.058588      6.458290
   166     -1.954944      7.074827     10.735613
   167     -1.407013      5.207237     11.199331
   168     -2.776061      7.021226      9.075026
   169     -5.071751     -5.478501      9.289616
   170     -6.176712     -6.159262      7.967815
   171     -4.308029     -6.979583     10.061282
   172     -7.048472     -1.460121     11.621385
   173     -6.151234     -2.830653     10.712251
   174     -6.881933      0.193576     10.551719
   175     -6.142808     -8.565856     -6.969503
   176     -5.394212     -9.975745     -5.956082
   177     -7.140699     -9.220030     -8.417509
 
  MM charges 
  ---------- 
     1     -0.674440
     2      0.337220
     3      0.337220
     4     -0.674440
     5      0.337220
     6      0.337220
     7     -0.674440
     8      0.337220
     9      0.337220
    10     -0.674440
    11      0.337220
    12      0.337220
    13     -0.674440
    14      0.337220
    15      0.337220
    16     -0.674440
    17      0.337220
    18      0.337220
    19     -0.674440
    20      0.337220
    21      0.337220
    22     -0.674440
    23      0.337220
    24      0.337220
    25     -0.674440
    26      0.337220
    27      0.337220
    28     -0.674440
    29      0.337220
    30      0.337220
    31     -0.674440
    32      0.337220
    33      0.337220
    34     -0.674440
    35      0.337220
    36      0.337220
    37     -0.674440
    38      0.337220
    39      0.337220
    40     -0.674440
    41      0.337220
    42      0.337220
    43     -0.674440
    44      0.337220
    45      0.337220
    46     -0.674440
    47      0.337220
    48      0.337220
    49     -0.674440
    50      0.337220
    51      0.337220
    52     -0.674440
    53      0.337220
    54      0.337220
    55     -0.674440
    56      0.337220
    57      0.337220
    58     -0.674440
    59      0.337220
    60      0.337220
    61     -0.674440
    62      0.337220
    63      0.337220
    64     -0.674440
    65      0.337220
    66      0.337220
    67     -0.674440
    68      0.337220
    69      0.337220
    70     -0.674440
    71      0.337220
    72      0.337220
    73     -0.674440
    74      0.337220
    75      0.337220
    76     -0.674440
    77      0.337220
    78      0.337220
    79     -0.674440
    80      0.337220
    81      0.337220
    82     -0.674440
    83      0.337220
    84      0.337220
    85     -0.674440
    86      0.337220
    87      0.337220
    88     -0.674440
    89      0.337220
    90      0.337220
    91     -0.674440
    92      0.337220
    93      0.337220
    94     -0.674440
    95      0.337220
    96      0.337220
    97     -0.674440
    98      0.337220
    99      0.337220
   100     -0.674440
   101      0.337220
   102      0.337220
   103     -0.674440
   104      0.337220
   105      0.337220
   106     -0.674440
   107      0.337220
   108      0.337220
   109     -0.674440
   110      0.337220
   111      0.337220
   112     -0.674440
   113      0.337220
   114      0.337220
   115     -0.674440
   116      0.337220
   117      0.337220
   118     -0.674440
   119      0.337220
   120      0.337220
   121     -0.674440
   122      0.337220
   123      0.337220
   124     -0.674440
   125      0.337220
   126      0.337220
   127     -0.674440
   128      0.337220
   129      0.337220
   130     -0.674440
   131      0.337220
   132      0.337220
   133     -0.674440
   134      0.337220
   135      0.337220
   136     -0.674440
   137      0.337220
   138      0.337220
   139     -0.674440
   140      0.337220
   141      0.337220
   142     -0.674440
   143      0.337220
   144      0.337220
   145     -0.674440
   146      0.337220
   147      0.337220
   148     -0.674440
   149      0.337220
   150      0.337220
   151     -0.674440
   152      0.337220
   153      0.337220
   154     -0.674440
   155      0.337220
   156      0.337220
   157     -0.674440
   158      0.337220
   159      0.337220
   160     -0.674440
   161      0.337220
   162      0.337220
   163     -0.674440
   164      0.337220
   165      0.337220
   166     -0.674440
   167      0.337220
   168      0.337220
   169     -0.674440
   170      0.337220
   171      0.337220
   172     -0.674440
   173      0.337220
   174      0.337220
   175     -0.674440
   176      0.337220
   177      0.337220
 
  MM isotropic polarizabilities in au 
  ----------------------------------- 
     1      5.739350
     2      2.308390
     3      2.308390
     4      5.739350
     5      2.308390
     6      2.308390
     7      5.739350
     8      2.308390
     9      2.308390
    10      5.739350
    11      2.308390
    12      2.308390
    13      5.739350
    14      2.308390
    15      2.308390
    16      5.739350
    17      2.308390
    18      2.308390
    19      5.739350
    20      2.308390
    21      2.308390
    22      5.739350
    23      2.308390
    24      2.308390
    25      5.739350
    26      2.308390
    27      2.308390
    28      5.739350
    29      2.308390
    30      2.308390
    31      5.739350
    32      2.308390
    33      2.308390
    34      5.739350
    35      2.308390
    36      2.308390
    37      5.739350
    38      2.308390
    39      2.308390
    40      5.739350
    41      2.308390
    42      2.308390
    43      5.739350
    44      2.308390
    45      2.308390
    46      5.739350
    47      2.308390
    48      2.308390
    49      5.739350
    50      2.308390
    51      2.308390
    52      5.739350
    53      2.308390
    54      2.308390
    55      5.739350
    56      2.308390
    57      2.308390
    58      5.739350
    59      2.308390
    60      2.308390
    61      5.739350
    62      2.308390
    63      2.308390
    64      5.739350
    65      2.308390
    66      2.308390
    67      5.739350
    68      2.308390
    69      2.308390
    70      5.739350
    71      2.308390
    72      2.308390
    73      5.739350
    74      2.308390
    75      2.308390
    76      5.739350
    77      2.308390
    78      2.308390
    79      5.739350
    80      2.308390
    81      2.308390
    82      5.739350
    83      2.308390
    84      2.308390
    85      5.739350
    86      2.308390
    87      2.308390
    88      5.739350
    89      2.308390
    90      2.308390
    91      5.739350
    92      2.308390
    93      2.308390
    94      5.739350
    95      2.308390
    96      2.308390
    97      5.739350
    98      2.308390
    99      2.308390
   100      5.739350
   101      2.308390
   102      2.308390
   103      5.739350
   104      2.308390
   105      2.308390
   106      5.739350
   107      2.308390
   108      2.308390
   109      5.739350
   110      2.308390
   111      2.308390
   112      5.739350
   113      2.308390
   114      2.308390
   115      5.739350
   116      2.308390
   117      2.308390
   118      5.739350
   119      2.308390
   120      2.308390
   121      5.739350
   122      2.308390
   123      2.308390
   124      5.739350
   125      2.308390
   126      2.308390
   127      5.739350
   128      2.308390
   129      2.308390
   130      5.739350
   131      2.308390
   132      2.308390
   133      5.739350
   134      2.308390
   135      2.308390
   136      5.739350
   137      2.308390
   138      2.308390
   139      5.739350
   140      2.308390
   141      2.308390
   142      5.739350
   143      2.308390
   144      2.308390
   145      5.739350
   146      2.308390
   147      2.308390
   148      5.739350
   149      2.308390
   150      2.308390
   151      5.739350
   152      2.308390
   153      2.308390
   154      5.739350
   155      2.308390
   156      2.308390
   157      5.739350
   158      2.308390
   159      2.308390
   160      5.739350
   161      2.308390
   162      2.308390
   163      5.739350
   164      2.308390
   165      2.308390
   166      5.739350
   167      2.308390
   168      2.308390
   169      5.739350
   170      2.308390
   171      2.308390
   172      5.739350
   173      2.308390
   174      2.308390
   175      5.739350
   176      2.308390
   177      2.308390


     ************************************************************************
     ************************** Output from HERINT **************************
     ************************************************************************



                      Nuclear contribution to dipole moments
                      --------------------------------------

                 au               Debye          C m (/(10**-30)

      x     54.37433134       138.20575593       461.00477928
      y    -31.04738954       -78.91458773      -263.23073054
      z      0.38379771         0.97551640         3.25397247


  Time used in HUCKEL     is       0.88 seconds
  Time used in OVERLAP    is       0.29 seconds
  Time used in POPOVLP    is       0.20 seconds
  Time used in DIPLEN     is       0.98 seconds
  Time used in QUADRUP    is       0.74 seconds
  Time used in KINENE     is       0.21 seconds

 Threshold for neglecting two-electron integrals:  1.00D-12
 HERMIT - Number of two-electron integrals written:    28895099 ( 38.5% )
 HERMIT - Megabytes written:                            330.865

  Time used in TWOINT     is      15.03 seconds
  Total CPU  time used in HERMIT:  18.40 seconds
  Total wall time used in HERMIT:   6.59 seconds


                        .----------------------------------.
                        | End of Integral Section (HERMIT) |
                        `----------------------------------'



                   .--------------------------------------------.
                   | Starting in Wave Function Section (SIRIUS) |
                   `--------------------------------------------'

NCCEXCI for singlet:   15
 CCSD_INPUT: core-val requested
 Requested number of core orbs per sym
                     1
 Indices of requested core orbs
                     1

 *** Output from Huckel module :

     Using EWMO model:          T
     Using EHT  model:          F
     Number of Huckel orbitals each symmetry:   36

 EWMO - Energy Weighted Maximum Overlap - is a Huckel type method,
        which normally is better than Extended Huckel Theory.
 Reference: Linderberg and Ohrn, Propagators in Quantum Chemistry (Wiley, 1973)

 Huckel EWMO eigenvalues for symmetry :  1
          -20.684889     -20.684461     -20.684289     -20.684193     -15.673264
           -1.708358      -1.605574      -1.589503      -1.564613      -1.458628
           -0.822552      -0.795834      -0.782423      -0.760009      -0.751972
           -0.719208      -0.704399      -0.689400      -0.670241      -0.649561
           -0.616146      -0.613397      -0.603270      -0.595154      -0.514907
           -0.264761      -0.244150      -0.228293      -0.224763      -0.186300
           -0.182900      -0.179077      -0.168129      -0.161174      -0.159664
           -0.150341

 **********************************************************************
 *SIRIUS* a direct, restricted step, second order MCSCF program       *
 **********************************************************************

 
     Date and time (Linux)  : Tue Nov 27 10:21:19 2018
     Host name              : n-62-24-1                               

 Title lines from ".mol" input file:
                                                                             
                                                                             

 Print level on unit LUPRI =   2 is   0
 Print level on unit LUW4  =   2 is  11

@    (Integral direct) CC calculation.

@    This is a combination run starting with
@              a restricted, closed shell Hartree-Fock calculation


 Initial molecular orbitals are obtained according to
 ".MOSTART EWMO  " input option

@    QM part is embedded in an environment :

@         Model: QMMM

     Wave function specification
     ============================

     For the specification of the Coupled Cluster: see later.

@    Wave function type        --- CC ---
@    Number of closed shell electrons          50
@    Number of electrons in active shells       0
@    Total charge of the molecule               0

@    Spin multiplicity and 2 M_S                1         0
@    Total number of symmetries                 1 (point group: C1 )
@    Reference state symmetry                   1 (irrep name : A  )

     Orbital specifications
     ======================
@    Abelian symmetry species          All |    1
@                                          |  A  
                                       --- |  ---
@    Occupied SCF orbitals              25 |   25
@    Secondary orbitals                131 |  131
@    Total number of orbitals          156 |  156
@    Number of basis functions         156 |  156

     Optimization information
     ========================
@    Number of configurations                 1
@    Number of orbital rotations           3275
     ------------------------------------------
@    Total number of variables             3276

     Maximum number of Fock   iterations      0
     Maximum number of DIIS   iterations     60
     Maximum number of QC-SCF iterations     60
     Threshold for SCF convergence     1.00D-07


 Changes of defaults for CC:
 ---------------------------


 -Implicit frozen core calculation
 -Excitation energies calculated
 -One-photon absorption strengths will be calculated
 -Oscillator strengths calculated
  
* Read MO coefficients from SIRIUS.RST with label "NEWORB  " and header info: 27Nov18  REORTHO 


 ***********************************************
 ***** DIIS acceleration of SCF iterations *****
 ***********************************************

 C1-DIIS algorithm; max error vectors =    8
 -----------------------------------------------------------------------------

 *** DIIS iteration number    1
 RDSUPM called. NFMAT, ISYMDM(1:NFMAT)                     1
                     1

Calculating AOSUPINT
     (Precalculated two-electron integrals are transformed to P-supermatrix elements.
      Threshold for discarding integrals :  1.00D-12 )
  CPU  time used in FORMSUP    is   4.13 seconds
  WALL time used in FORMSUP    is   6.78 seconds

 ITDIIS, energy, error norm, change in energy, scr.thr., difden:
@ DIIS iter.   1    -359.928635853        3.77695D+00   -3.60D+02  -20    F

 (DIIS_RED) Control Parameters C2DIIS =         F NEVC =    1


 (DIIS_RED) B matrix:

               Column   1
       1      14.26532843
    ==== End of matrix output ====

 DIIS C vector; C2DIIS = F, LAMBDA = -1.43D+01
    1.000000
* Read MO coefficients from SIRIUS.RST with label "NEWORB  " and header info: 27Nov18  DIIS   1
      Virial theorem: -V/T =      1.998372
@      MULPOP N      -0.33; H       0.16; H       0.14; H       0.16; O      -0.60; O      -0.63; O      -0.85; O      -0.63; H       0.31; H       0.32; 
@             H       0.32; H       0.33; H       0.32; H       0.32; H       0.31; H       0.33; 
   1  Level shift: doubly occupied orbital energies shifted by -2.00D-01

 DIIS Fock eigenvalues in symmetry 1
      -20.73999      -20.72595      -20.70731      -20.54406      -15.98896
       -1.57080       -1.54802       -1.52619       -1.47231       -1.43076
       -0.95802       -0.94541       -0.92445       -0.91772       -0.90899
       -0.87541       -0.82179       -0.79907       -0.77425       -0.77079
       -0.76197       -0.75749       -0.73509       -0.70308       -0.67626
        0.09689        0.13135        0.17039        0.17414        0.20307
        0.22539        0.24382        0.26356        0.26937        0.30526
        0.33501        0.41201        0.45825        0.49361        0.52824
        0.53647        0.54291        0.56367        0.58100        0.58746
        0.60059        0.64318        0.81105        0.82293        0.85548
        0.93689        0.95379        0.97175        0.99330        1.00544
        1.03152        1.03321        1.05941        1.08821        1.09935
        1.12947        1.16225        1.21143        1.24955        1.28643
        1.32795        1.33791        1.37588        1.42493        1.44451
        1.45426        1.46201        1.47051        1.47653        1.51712
        1.54861        1.62379        1.64437        1.65128        1.65661
        1.71261        1.75675        1.76946        1.80092        1.83382
        1.85763        1.86686        1.91443        1.96706        2.02332
        2.09371        2.16142        2.19405        2.20157        2.27775
        2.28665        2.30533        2.31466        2.40125        2.46028
        2.54608        2.54857        2.59142        2.60841        2.67401
        2.72472        2.73976        2.76035        2.77564        2.79790
        2.81916        2.84903        2.92728        3.03656        3.26248
        3.30627        3.40744        3.41588        3.41785        3.46760
        3.48599        3.48697        3.50876        3.54730        3.61911
        3.62779        3.63196        3.70506        3.94612        3.95845
        3.98351        4.02582        4.16247        4.18889        4.19160
        4.21316        4.49002        4.85668        5.01319        5.29060
        5.32901        5.35329        5.41973        5.72408        5.72895
        5.75344        5.83442        6.04958        6.06159        6.12072
        6.18878       36.72689       51.53522       51.54573       51.54893
       51.75097
 Time used in FCKEIG, thr_jaco:   4.09D-01  4.20D-02  1.65D-04
 CPU and wall times used in FCKEIG, THR_FCKEIG:   4.09D-01  4.20D-02  3.78D-02
 -----------------------------------------------------------------------------

 *** DIIS iteration number    2
 RDSUPM called. NFMAT, ISYMDM(1:NFMAT)                     1
                     1

 ITDIIS, energy, error norm, change in energy, scr.thr., difden:
@ DIIS iter.   2    -360.709588040        9.30324D-01   -7.81D-01  -20    F

 (DIIS_RED) Control Parameters C2DIIS =         F NEVC =    2


 (DIIS_RED) B matrix:

               Column   1     Column   2
       1      14.26532843
       2       0.85470386     0.86550330
    ==== End of matrix output ====

 DIIS C vector; C2DIIS = F, LAMBDA = -8.65D-01
    0.000805    0.999195
* Read MO coefficients from SIRIUS.RST with label "NEWORB  " and header info: 27Nov18  DIIS   2
      Virial theorem: -V/T =      2.004492
@      MULPOP N      -0.64; H       0.22; H       0.22; H       0.24; O      -0.57; O      -0.56; O      -0.67; O      -0.60; H       0.31; H       0.29; 
@             H       0.30; H       0.27; H       0.25; H       0.32; H       0.28; H       0.32; 
   2  Level shift: doubly occupied orbital energies shifted by -5.00D-02

 DIIS Fock eigenvalues in symmetry 1
      -20.68620      -20.63443      -20.62609      -20.62479      -15.49758
       -1.40673       -1.39473       -1.38641       -1.37526       -1.15286
       -0.77772       -0.74855       -0.74535       -0.74135       -0.67806
       -0.66652       -0.66226       -0.64318       -0.63593       -0.61494
       -0.59316       -0.58138       -0.58086       -0.56822       -0.47109
        0.13561        0.16318        0.19488        0.20658        0.22763
        0.25583        0.26889        0.29209        0.30933        0.32450
        0.34533        0.47113        0.50975        0.53314        0.56668
        0.57298        0.58103        0.59960        0.61524        0.62427
        0.64366        0.68578        0.88769        0.89938        0.92535
        0.95421        0.96605        0.98073        1.00456        1.02332
        1.04779        1.06259        1.08679        1.11599        1.12812
        1.13631        1.14633        1.28703        1.32989        1.34278
        1.35319        1.36976        1.41215        1.46339        1.50388
        1.50632        1.52334        1.52477        1.52585        1.55499
        1.57937        1.63507        1.68597        1.70682        1.70875
        1.76654        1.82797        1.84853        1.86332        1.89723
        1.91139        1.92819        1.98680        2.03944        2.12702
        2.20539        2.21420        2.23778        2.25388        2.29899
        2.34420        2.37000        2.37617        2.48882        2.52587
        2.60604        2.61072        2.63993        2.66895        2.74839
        2.79626        2.81312        2.82811        2.85338        2.89161
        2.91771        2.97467        3.03912        3.16319        3.41424
        3.42053        3.43401        3.44405        3.44884        3.46910
        3.49325        3.50219        3.50600        3.51554        3.64035
        3.64197        3.66083        3.66212        3.93060        3.97152
        3.98206        4.04076        4.17685        4.18567        4.21388
        4.21705        4.63806        5.07319        5.22662        5.27560
        5.29391        5.32757        5.35331        5.70292        5.72394
        5.73334        5.74751        6.06872        6.06982        6.07396
        6.14430       37.06248       51.46346       51.48343       51.48961
       51.50414
 Time used in FCKEIG, thr_jaco:   2.87D-01  2.90D-02  4.06D-05
 CPU and wall times used in FCKEIG, THR_FCKEIG:   2.88D-01  2.90D-02  9.30D-03
 -----------------------------------------------------------------------------

 *** DIIS iteration number    3
 RDSUPM called. NFMAT, ISYMDM(1:NFMAT)                     1
                     1

 ITDIIS, energy, error norm, change in energy, scr.thr., difden:
@ DIIS iter.   3    -360.768608630        3.49927D-01   -5.90D-02  -20    F

 (DIIS_RED) Control Parameters C2DIIS =         F NEVC =    3


 (DIIS_RED) B matrix:

               Column   1     Column   2     Column   3
       1      14.26532843
       2       0.85470386     0.86550330
       3       0.63068061     0.04549023     0.12244883
    ==== End of matrix output ====

 DIIS C vector; C2DIIS = F, LAMBDA = -9.39D-02
   -0.041001    0.099556    0.941445
* Read MO coefficients from SIRIUS.RST with label "NEWORB  " and header info: 27Nov18  DIIS   3
      Virial theorem: -V/T =      2.002201
@      MULPOP N      -0.57; H       0.19; H       0.20; H       0.22; O      -0.63; O      -0.60; O      -0.77; O      -0.65; H       0.34; H       0.31; 
@             H       0.33; H       0.29; H       0.31; H       0.37; H       0.31; H       0.36; 
   3  Level shift: doubly occupied orbital energies shifted by -2.50D-02

 DIIS Fock eigenvalues in symmetry 1
      -20.57949      -20.57025      -20.55838      -20.51917      -15.60057
       -1.36998       -1.35008       -1.33322       -1.32341       -1.16123
       -0.73928       -0.70765       -0.69980       -0.68754       -0.66721
       -0.63567       -0.61635       -0.60325       -0.59792       -0.57732
       -0.53784       -0.53555       -0.51890       -0.51378       -0.46565
        0.14020        0.16689        0.19933        0.21043        0.23112
        0.25822        0.27077        0.29389        0.31036        0.32925
        0.35198        0.47171        0.51239        0.54688        0.57385
        0.58019        0.58875        0.60871        0.62485        0.63088
        0.64982        0.69186        0.88721        0.90128        0.92402
        0.96753        0.98593        1.00072        1.01744        1.02688
        1.06146        1.07314        1.09607        1.12952        1.13690
        1.15781        1.16094        1.28657        1.33048        1.35142
        1.36025        1.37676        1.42021        1.47259        1.51369
        1.51675        1.53303        1.53500        1.53729        1.56995
        1.59265        1.65157        1.69865        1.71526        1.71754
        1.77588        1.83242        1.85243        1.87123        1.90512
        1.92048        1.93587        1.99268        2.04468        2.11881
        2.19453        2.22530        2.25081        2.26603        2.32259
        2.35843        2.38224        2.38797        2.49899        2.53422
        2.61619        2.61992        2.65145        2.67878        2.75559
        2.80462        2.82041        2.83538        2.85934        2.89499
        2.90487        2.95238        3.03335        3.14563        3.39496
        3.43053        3.44905        3.46288        3.46738        3.50056
        3.51184        3.52655        3.53223        3.53856        3.66413
        3.67868        3.68103        3.69753        3.98060        3.98951
        4.00316        4.06287        4.20466        4.22889        4.23396
        4.23834        4.59518        5.01974        5.17720        5.31651
        5.35176        5.36250        5.37823        5.74784        5.75410
        5.77369        5.78573        6.09207        6.09860        6.15231
        6.16747       36.93842       51.51870       51.52544       51.53406
       51.60565
 Time used in FCKEIG, thr_jaco:   2.50D-01  2.50D-02  1.53D-05
 CPU and wall times used in FCKEIG, THR_FCKEIG:   2.50D-01  2.50D-02  3.50D-03
 -----------------------------------------------------------------------------

 *** DIIS iteration number    4
 RDSUPM called. NFMAT, ISYMDM(1:NFMAT)                     1
                     1

 ITDIIS, energy, error norm, change in energy, scr.thr., difden:
@ DIIS iter.   4    -360.776689248        1.18860D-01   -8.08D-03  -20    F

 (DIIS_RED) Control Parameters C2DIIS =         F NEVC =    4


 (DIIS_RED) B matrix:

               Column   1     Column   2     Column   3     Column   4
       1      14.26532843
       2       0.85470386     0.86550330
       3       0.63068061     0.04549023     0.12244883
       4      -0.00841984     0.08396361    -0.01135087     0.01412758
    ==== End of matrix output ====

 DIIS C vector; C2DIIS = F, LAMBDA = -3.59D-03
   -0.000281   -0.095011    0.153382    0.941910
* Read MO coefficients from SIRIUS.RST with label "NEWORB  " and header info: 27Nov18  DIIS   4
      Virial theorem: -V/T =      2.003128
@      MULPOP N      -0.64; H       0.21; H       0.22; H       0.24; O      -0.64; O      -0.61; O      -0.75; O      -0.66; H       0.35; H       0.32; 
@             H       0.33; H       0.29; H       0.30; H       0.37; H       0.31; H       0.36; 
   4  Level shift: doubly occupied orbital energies shifted by -1.25D-02

 DIIS Fock eigenvalues in symmetry 1
      -20.57437      -20.56473      -20.55633      -20.54664      -15.55282
       -1.36081       -1.34074       -1.32451       -1.32337       -1.13656
       -0.72932       -0.69749       -0.69022       -0.68262       -0.64496
       -0.61753       -0.60113       -0.59245       -0.59143       -0.56477
       -0.52476       -0.52229       -0.51057       -0.50610       -0.44191
        0.14055        0.16658        0.19848        0.21022        0.23157
        0.25895        0.27149        0.29515        0.31311        0.32910
        0.35390        0.47652        0.51630        0.54791        0.57417
        0.58043        0.58834        0.60742        0.62400        0.62964
        0.64993        0.69401        0.89339        0.90581        0.92924
        0.96864        0.98573        0.99960        1.01736        1.02913
        1.06042        1.07389        1.09638        1.12871        1.13728
        1.15523        1.15741        1.29041        1.33560        1.35186
        1.36175        1.37730        1.42268        1.47387        1.51233
        1.51510        1.53107        1.53378        1.53553        1.56831
        1.59144        1.64967        1.69786        1.71453        1.71727
        1.77564        1.83560        1.85658        1.87254        1.90556
        1.92015        1.93473        1.99652        2.04837        2.12717
        2.20396        2.22309        2.24883        2.26380        2.31657
        2.35610        2.37969        2.38521        2.50240        2.53781
        2.61499        2.61833        2.65048        2.67803        2.75825
        2.80474        2.82209        2.83467        2.86126        2.89980
        2.91220        2.96469        3.04158        3.15597        3.40830
        3.43768        3.44985        3.46135        3.46597        3.49292
        3.51017        3.52384        3.52685        3.53325        3.66214
        3.67617        3.67955        3.68675        3.97029        3.98761
        4.00070        4.06021        4.20220        4.22071        4.23237
        4.23643        4.61056        5.03917        5.19622        5.31335
        5.33721        5.35191        5.37413        5.74444        5.74938
        5.76585        5.77170        6.08828        6.09345        6.13273
        6.16340       36.97309       51.51188       51.51520       51.52686
       51.56665
 Time used in FCKEIG, thr_jaco:   2.39D-01  2.40D-02  5.19D-06
 CPU and wall times used in FCKEIG, THR_FCKEIG:   2.39D-01  2.40D-02  1.19D-03
 -----------------------------------------------------------------------------

 *** DIIS iteration number    5
 RDSUPM called. NFMAT, ISYMDM(1:NFMAT)                     1
                     1

 ITDIIS, energy, error norm, change in energy, scr.thr., difden:
@ DIIS iter.   5    -360.777803592        2.23803D-02   -1.11D-03  -20    F

 (DIIS_RED) Control Parameters C2DIIS =         F NEVC =    5


 (DIIS_RED) B matrix:

               Column   1     Column   2     Column   3     Column   4     Column   5
       1      14.26532843
       2       0.85470386     0.86550330
       3       0.63068061     0.04549023     0.12244883
       4      -0.00841984     0.08396361    -0.01135087     0.01412758
       5       0.01103964     0.00588736     0.00454078     0.00077079     0.00050088
    ==== End of matrix output ====

 DIIS C vector; C2DIIS = F, LAMBDA = -2.43D-04
    0.001455    0.010452   -0.070380   -0.167491    1.225964
* Read MO coefficients from SIRIUS.RST with label "NEWORB  " and header info: 27Nov18  DIIS   5
      Virial theorem: -V/T =      2.002778
@      MULPOP N      -0.64; H       0.20; H       0.22; H       0.24; O      -0.65; O      -0.62; O      -0.77; O      -0.67; H       0.36; H       0.32; 
@             H       0.34; H       0.29; H       0.31; H       0.38; H       0.32; H       0.37; 

 DIIS Fock eigenvalues in symmetry 1
      -20.56117      -20.55162      -20.54239      -20.52892      -15.53731
       -1.34813       -1.32797       -1.31145       -1.30890       -1.12326
       -0.71709       -0.68517       -0.67778       -0.66898       -0.63210
       -0.60487       -0.58798       -0.57915       -0.57855       -0.55214
       -0.51136       -0.50863       -0.49533       -0.49228       -0.42812
        0.14044        0.16640        0.19834        0.21005        0.23178
        0.25886        0.27147        0.29521        0.31319        0.32896
        0.35430        0.47675        0.51643        0.54842        0.57405
        0.58037        0.58818        0.60714        0.62396        0.62941
        0.64985        0.69431        0.89406        0.90662        0.92980
        0.96940        0.98680        1.00084        1.01835        1.02969
        1.06055        1.07401        1.09642        1.12885        1.13746
        1.15606        1.15740        1.29083        1.33594        1.35207
        1.36211        1.37742        1.42310        1.47429        1.51198
        1.51463        1.53059        1.53348        1.53508        1.56860
        1.59162        1.65016        1.69801        1.71411        1.71704
        1.77536        1.83567        1.85684        1.87233        1.90527
        1.91985        1.93418        1.99675        2.04855        2.12760
        2.20433        2.22255        2.24838        2.26316        2.31704
        2.35576        2.37920        2.38475        2.50267        2.53827
        2.61456        2.61783        2.65023        2.67748        2.75826
        2.80415        2.82174        2.83409        2.86102        2.89972
        2.91259        2.96534        3.04209        3.15657        3.40921
        3.43828        3.45034        3.46157        3.46705        3.49456
        3.51025        3.52433        3.52796        3.53375        3.66248
        3.67641        3.67965        3.68848        3.97223        3.98770
        4.00083        4.06040        4.20259        4.22263        4.23251
        4.23656        4.61217        5.04052        5.19754        5.31389
        5.34019        5.35296        5.37490        5.74480        5.75005
        5.76767        5.77288        6.08832        6.09390        6.13540
        6.16343       36.97604       51.51250       51.51663       51.52755
       51.57174
 Time used in FCKEIG, thr_jaco:   2.35D-01  2.40D-02  9.78D-07
 CPU and wall times used in FCKEIG, THR_FCKEIG:   2.35D-01  2.40D-02  2.24D-04
 -----------------------------------------------------------------------------

 *** DIIS iteration number    6
 RDSUPM called. NFMAT, ISYMDM(1:NFMAT)                     1
                     1

 ITDIIS, energy, error norm, change in energy, scr.thr., difden:
@ DIIS iter.   6    -360.777880648        6.51210D-03   -7.71D-05  -20    F

 (DIIS_RED) Control Parameters C2DIIS =         F NEVC =    6


 (DIIS_RED) B matrix:

               Column   1     Column   2     Column   3     Column   4     Column   5     Column   6
       1      14.26532843
       2       0.85470386     0.86550330
       3       0.63068061     0.04549023     0.12244883
       4      -0.00841984     0.08396361    -0.01135087     0.01412758
       5       0.01103964     0.00588736     0.00454078     0.00077079     0.00050088
       6      -0.00163636    -0.00036232     0.00046918     0.00012161     0.00006624     0.00004241
    ==== End of matrix output ====

 DIIS C vector; C2DIIS = F, LAMBDA = -2.85D-05
    0.000391    0.006750   -0.018237   -0.066803    0.109019    0.968880
* Read MO coefficients from SIRIUS.RST with label "NEWORB  " and header info: 27Nov18  DIIS   6
      Virial theorem: -V/T =      2.002885
@      MULPOP N      -0.64; H       0.20; H       0.22; H       0.24; O      -0.65; O      -0.62; O      -0.77; O      -0.68; H       0.36; H       0.32; 
@             H       0.34; H       0.30; H       0.32; H       0.38; H       0.32; H       0.37; 

 DIIS Fock eigenvalues in symmetry 1
      -20.56137      -20.55164      -20.54292      -20.53067      -15.54024
       -1.34812       -1.32790       -1.31156       -1.30929       -1.12419
       -0.71719       -0.68524       -0.67797       -0.66942       -0.63287
       -0.60530       -0.58845       -0.57934       -0.57905       -0.55249
       -0.51131       -0.50844       -0.49557       -0.49227       -0.42891
        0.14038        0.16634        0.19828        0.20997        0.23167
        0.25876        0.27139        0.29509        0.31303        0.32889
        0.35422        0.47651        0.51625        0.54819        0.57395
        0.58025        0.58807        0.60703        0.62384        0.62932
        0.64971        0.69408        0.89362        0.90618        0.92937
        0.96930        0.98681        1.00072        1.01821        1.02938
        1.06045        1.07390        1.09631        1.12876        1.13730
        1.15582        1.15732        1.29047        1.33560        1.35198
        1.36192        1.37727        1.42285        1.47403        1.51188
        1.51451        1.53047        1.53337        1.53493        1.56844
        1.59141        1.64994        1.69786        1.71399        1.71685
        1.77520        1.83535        1.85650        1.87213        1.90511
        1.91970        1.93404        1.99648        2.04830        2.12705
        2.20370        2.22243        2.24817        2.26303        2.31674
        2.35557        2.37907        2.38462        2.50235        2.53791
        2.61441        2.61767        2.65009        2.67729        2.75801
        2.80396        2.82152        2.83390        2.86077        2.89940
        2.91196        2.96448        3.04148        3.15584        3.40821
        3.43779        3.44997        3.46159        3.46659        3.49401
        3.51025        3.52412        3.52760        3.53352        3.66232
        3.67632        3.67966        3.68803        3.97170        3.98769
        4.00070        4.06025        4.20242        4.22201        4.23252
        4.23648        4.61072        5.03902        5.19606        5.31394
        5.33942        5.35271        5.37471        5.74474        5.74982
        5.76712        5.77245        6.08829        6.09361        6.13453
        6.16330       36.97317       51.51246       51.51611       51.52735
       51.57003
 Time used in FCKEIG, thr_jaco:   2.21D-01  2.20D-02  2.84D-07
 CPU and wall times used in FCKEIG, THR_FCKEIG:   2.21D-01  2.20D-02  6.51D-05
 -----------------------------------------------------------------------------

 *** DIIS iteration number    7
 RDSUPM called. NFMAT, ISYMDM(1:NFMAT)                     1
                     1

 ITDIIS, energy, error norm, change in energy, scr.thr., difden:
@ DIIS iter.   7    -360.777885225        2.35979D-03   -4.58D-06  -20    F

 (DIIS_RED) Control Parameters C2DIIS =         F NEVC =    7


 (DIIS_RED) B matrix:

               Column   1     Column   2     Column   3     Column   4     Column   5     Column   6
       1      14.26532843
       2       0.85470386     0.86550330
       3       0.63068061     0.04549023     0.12244883
       4      -0.00841984     0.08396361    -0.01135087     0.01412758
       5       0.01103964     0.00588736     0.00454078     0.00077079     0.00050088
       6      -0.00163636    -0.00036232     0.00046918     0.00012161     0.00006624     0.00004241
       7       0.00075397     0.00000170     0.00007145    -0.00000315     0.00002851    -0.00000047

               Column   7
       7       0.00000557
    ==== End of matrix output ====

 DIIS C vector; C2DIIS = F, LAMBDA = -1.22D-06
   -0.000215   -0.001430    0.009187    0.024373   -0.170165    0.113649    1.024602
* Read MO coefficients from SIRIUS.RST with label "NEWORB  " and header info: 27Nov18  DIIS   7
      Virial theorem: -V/T =      2.002862
@      MULPOP N      -0.64; H       0.20; H       0.22; H       0.24; O      -0.65; O      -0.62; O      -0.77; O      -0.68; H       0.36; H       0.32; 
@             H       0.34; H       0.30; H       0.32; H       0.38; H       0.32; H       0.37; 

 DIIS Fock eigenvalues in symmetry 1
      -20.56134      -20.55167      -20.54275      -20.52995      -15.53952
       -1.34807       -1.32787       -1.31145       -1.30897       -1.12395
       -0.71716       -0.68523       -0.67791       -0.66918       -0.63274
       -0.60525       -0.58835       -0.57937       -0.57887       -0.55246
       -0.51124       -0.50838       -0.49522       -0.49213       -0.42864
        0.14042        0.16636        0.19831        0.21000        0.23172
        0.25878        0.27141        0.29512        0.31306        0.32891
        0.35432        0.47659        0.51632        0.54834        0.57399
        0.58030        0.58813        0.60705        0.62389        0.62934
        0.64975        0.69419        0.89375        0.90633        0.92948
        0.96939        0.98692        1.00088        1.01834        1.02949
        1.06049        1.07395        1.09635        1.12880        1.13736
        1.15598        1.15737        1.29061        1.33567        1.35204
        1.36201        1.37735        1.42297        1.47415        1.51188
        1.51452        1.53045        1.53341        1.53494        1.56857
        1.59150        1.65007        1.69796        1.71399        1.71688
        1.77525        1.83544        1.85659        1.87217        1.90515
        1.91975        1.93404        1.99656        2.04839        2.12717
        2.20383        2.22243        2.24819        2.26305        2.31688
        2.35559        2.37907        2.38463        2.50244        2.53804
        2.61443        2.61769        2.65016        2.67731        2.75803
        2.80397        2.82153        2.83390        2.86083        2.89948
        2.91215        2.96469        3.04164        3.15601        3.40847
        3.43794        3.45009        3.46160        3.46679        3.49430
        3.51027        3.52423        3.52780        3.53365        3.66241
        3.67639        3.67968        3.68833        3.97201        3.98770
        4.00076        4.06032        4.20253        4.22234        4.23255
        4.23654        4.61112        5.03938        5.19641        5.31395
        5.33983        5.35284        5.37481        5.74477        5.74993
        5.76739        5.77265        6.08829        6.09371        6.13496
        6.16334       36.97387       51.51244       51.51627       51.52739
       51.57074
 Time used in FCKEIG, thr_jaco:   2.30D-01  2.30D-02  1.03D-07
 CPU and wall times used in FCKEIG, THR_FCKEIG:   2.30D-01  2.30D-02  2.36D-05
 -----------------------------------------------------------------------------

 *** DIIS iteration number    8
 RDSUPM called. NFMAT, ISYMDM(1:NFMAT)                     1
                     1

 ITDIIS, energy, error norm, change in energy, scr.thr., difden:
@ DIIS iter.   8    -360.777885729        3.42501D-04   -5.04D-07  -20    F

 (DIIS_RED) Control Parameters C2DIIS =         F NEVC =    8


 (DIIS_RED) B matrix:

               Column   1     Column   2     Column   3     Column   4     Column   5     Column   6
       1      14.26532843
       2       0.85470386     0.86550330
       3       0.63068061     0.04549023     0.12244883
       4      -0.00841984     0.08396361    -0.01135087     0.01412758
       5       0.01103964     0.00588736     0.00454078     0.00077079     0.00050088
       6      -0.00163636    -0.00036232     0.00046918     0.00012161     0.00006624     0.00004241
       7       0.00075397     0.00000170     0.00007145    -0.00000315     0.00002851    -0.00000047
       8       0.00000993     0.00000110    -0.00000417     0.00000399     0.00000092     0.00000124

               Column   7     Column   8
       7       0.00000557
       8       0.00000018     0.00000012
    ==== End of matrix output ====

 DIIS C vector; C2DIIS = F, LAMBDA = -6.21D-08
    0.000011    0.000022   -0.000649   -0.001648    0.020302   -0.053259   -0.129025    1.164245
* Read MO coefficients from SIRIUS.RST with label "NEWORB  " and header info: 27Nov18  DIIS   8
      Virial theorem: -V/T =      2.002878
@      MULPOP N      -0.64; H       0.20; H       0.22; H       0.24; O      -0.65; O      -0.62; O      -0.77; O      -0.68; H       0.36; H       0.32; 
@             H       0.34; H       0.30; H       0.32; H       0.38; H       0.32; H       0.37; 

 DIIS Fock eigenvalues in symmetry 1
      -20.56132      -20.55165      -20.54277      -20.52999      -15.53957
       -1.34806       -1.32786       -1.31146       -1.30898       -1.12396
       -0.71715       -0.68522       -0.67791       -0.66919       -0.63276
       -0.60526       -0.58836       -0.57938       -0.57889       -0.55249
       -0.51123       -0.50837       -0.49522       -0.49214       -0.42866
        0.14042        0.16636        0.19830        0.20999        0.23172
        0.25878        0.27141        0.29511        0.31305        0.32891
        0.35431        0.47658        0.51631        0.54832        0.57399
        0.58029        0.58812        0.60705        0.62389        0.62934
        0.64975        0.69418        0.89374        0.90632        0.92947
        0.96939        0.98692        1.00088        1.01833        1.02948
        1.06048        1.07395        1.09635        1.12880        1.13735
        1.15598        1.15737        1.29060        1.33566        1.35204
        1.36200        1.37734        1.42296        1.47414        1.51188
        1.51451        1.53045        1.53340        1.53493        1.56856
        1.59149        1.65006        1.69795        1.71399        1.71687
        1.77524        1.83542        1.85657        1.87216        1.90514
        1.91974        1.93403        1.99654        2.04837        2.12715
        2.20381        2.22243        2.24818        2.26305        2.31688
        2.35558        2.37907        2.38462        2.50242        2.53802
        2.61443        2.61769        2.65015        2.67731        2.75802
        2.80396        2.82152        2.83390        2.86082        2.89947
        2.91213        2.96467        3.04161        3.15599        3.40845
        3.43792        3.45008        3.46161        3.46678        3.49428
[...]

 Principal values of diagonalized transition strength matrix:

             a.u.               
 1      -0.00000000
 2      -0.00000000
 3       0.00011321

 Principal axis of diagonalized transition strength matrix:


               Column   1     Column   2     Column   3
       1       0.02159358     0.64812484     0.76122790
       2       0.96036668    -0.22509241     0.16440573
       3       0.27790206     0.72750780    -0.62729805
    ==== End of matrix output ====


 CCSD   oscillator strength matrix for state nr. 13 of symmetry 1
 CCSD  excitation energy:15.15124506


               Column   1     Column   2     Column   3
       1     6.626339D-04   1.431111D-04  -5.460509D-04
       2     1.431111D-04   3.087003D-05  -1.179441D-04
       3    -5.460509D-04  -1.179441D-04   4.499757D-04
    ==== End of matrix output ====

 Principal values of diagonalized oscillator strength matrix:

             a.u.               
 1      -0.00000004
 2      -0.00000000
 3       0.00114352

 Principal axis of diagonalized oscillator strength matrix:


               Column   1     Column   2     Column   3
       1       0.02159358     0.64812484     0.76122790
       2       0.96036668    -0.22509241     0.16440573
       3       0.27790206     0.72750780    -0.62729805
    ==== End of matrix output ====


 CCSD  Transition strength matrix for state nr. 14 of symmetry 1
 CCSD  excitation energy:15.18140508

 Gauge: length

               Column   1     Column   2     Column   3
       1     3.718840D-05   7.089232D-05  -9.323047D-06
       2     7.089232D-05   1.351422D-04  -1.777253D-05
       3    -9.323047D-06  -1.777253D-05   2.336760D-06
    ==== End of matrix output ====

 Principal values of diagonalized transition strength matrix:

             a.u.               
 1      -0.00000000
 2      -0.00000000
 3       0.00017467

 Principal axis of diagonalized transition strength matrix:


               Column   1     Column   2     Column   3
       1       0.06263173     0.88496780     0.46142092
       2       0.09776501    -0.46554525     0.87960765
       3       0.99323676    -0.00998052    -0.11567679
    ==== End of matrix output ====


 CCSD   oscillator strength matrix for state nr. 14 of symmetry 1
 CCSD  excitation energy:15.18140508


               Column   1     Column   2     Column   3
       1       0.00037638     0.00071750    -0.00009436
       2       0.00071750     0.00136777    -0.00017987
       3      -0.00009436    -0.00017987     0.00002365
    ==== End of matrix output ====

 Principal values of diagonalized oscillator strength matrix:

             a.u.               
 1      -0.00000001
 2      -0.00000000
 3       0.00176780

 Principal axis of diagonalized oscillator strength matrix:


               Column   1     Column   2     Column   3
       1       0.06263173     0.88496780     0.46142092
       2       0.09776501    -0.46554525     0.87960765
       3       0.99323676    -0.00998052    -0.11567679
    ==== End of matrix output ====


 CCSD  Transition strength matrix for state nr. 15 of symmetry 1
 CCSD  excitation energy:15.27075710

 Gauge: length

               Column   1     Column   2     Column   3
       1     5.352826D-04   7.506309D-05  -1.298815D-04
       2     7.506309D-05   1.052565D-05  -1.821243D-05
       3    -1.298815D-04  -1.821243D-05   3.151279D-05
    ==== End of matrix output ====

 Principal values of diagonalized transition strength matrix:

             a.u.               
 1      -0.00000000
 2       0.00000000
 3       0.00057732

 Principal axis of diagonalized transition strength matrix:


               Column   1     Column   2     Column   3
       1       0.26966657    -0.00997410     0.96290210
       2      -0.44948608     0.88302305     0.13502798
       3       0.85161153     0.46922362    -0.23363858
    ==== End of matrix output ====


 CCSD   oscillator strength matrix for state nr. 15 of symmetry 1
 CCSD  excitation energy:15.27075710


               Column   1     Column   2     Column   3
       1       0.00544945     0.00076418    -0.00132226
       2       0.00076418     0.00010716    -0.00018541
       3      -0.00132226    -0.00018541     0.00032082
    ==== End of matrix output ====

 Principal values of diagonalized oscillator strength matrix:

             a.u.               
 1      -0.00000002
 2       0.00000000
 3       0.00587744

 Principal axis of diagonalized oscillator strength matrix:


               Column   1     Column   2     Column   3
       1       0.26966657    -0.00997410     0.96290210
       2      -0.44948608     0.88302305     0.13502798
       3       0.85161153     0.46922362    -0.23363858
    ==== End of matrix output ====

  Total time for    135 linear response residues:     134.81 seconds.
  

 *******************************************************************************
 *******************************************************************************
 *                                                                             *
 *                                                                             *
 *                   SUMMARY OF COUPLED CLUSTER CALCULATION                    *
 *                                                                             *
 *                                                                             *
 *******************************************************************************
 *******************************************************************************

                                                                                
                                                                                
            Total SCF   energy:                  -360.7778857460                
            Total MP2   energy:                  -361.8816492396                
            Total CCSD  energy:                  -361.9215222847                
                                                                                
                                                                                
            Total SCF   energy:                  -360.7778857460                
            Total RSTAR energy:                  -361.9215222847                
            Total CCSD  energy:                  -361.9216684032                
                                                                                
                                                                                
            Total SCF   energy:                  -360.7778857460                
            Total RSTAR energy:                  -361.9216684032                
            Total CCSD  energy:                  -361.9216700995                
                                                                                
                                                                                
            Total SCF   energy:                  -360.7778857460                
            Total RSTAR energy:                  -361.9216700995                
            Total CCSD  energy:                  -361.9216702212                
                                                                                
                                                                                
            Total SCF   energy:                  -360.7778857460                
            Total RSTAR energy:                  -361.9216702212                
            Total CCSD  energy:                  -361.9216702273                
                                                                                
                                                                                
            Total SCF   energy:                  -360.7778857460                
            Total RSTAR energy:                  -361.9216702273                
            Total CCSD  energy:                  -361.9216702276                
            CCSD Total  energy:                  -362.3331562812                
            CCSD E(QM/MM)     :                    -0.4065949082                
                                                                                
                                                                                
                                                                                
 +=============================================================================+
 |  sym. | Exci.  |        CCSD       Excitation energies            | ||T1||  |
 |(spin, |        +------------------------------------------------------------+
 | spat) |        |     Hartree    |       eV.      |     cm-1       |    %    |
 +=============================================================================+
 | ^1A   |    1   |    14.8210664  |     403.30173  |   3252848.064  |  88.13  |
 | ^1A   |    2   |    14.8786235  |     404.86794  |   3265480.388  |  88.53  |
 | ^1A   |    3   |    14.8976551  |     405.38582  |   3269657.332  |  88.56  |
 | ^1A   |    4   |    14.9436316  |     406.63690  |   3279748.011  |  87.94  |
 | ^1A   |    5   |    14.9693168  |     407.33583  |   3285385.252  |  87.88  |
 | ^1A   |    6   |    15.0010022  |     408.19803  |   3292339.388  |  87.84  |
 | ^1A   |    7   |    15.0174363  |     408.64523  |   3295946.270  |  87.77  |
 | ^1A   |    8   |    15.0536511  |     409.63068  |   3303894.496  |  87.89  |
 | ^1A   |    9   |    15.0617434  |     409.85089  |   3305670.554  |  87.71  |
 | ^1A   |   10   |    15.0879985  |     410.56532  |   3311432.877  |  87.89  |
 | ^1A   |   11   |    15.1086130  |     411.12627  |   3315957.242  |  87.71  |
 | ^1A   |   12   |    15.1288499  |     411.67695  |   3320398.729  |  87.63  |
 | ^1A   |   13   |    15.1512451  |     412.28635  |   3325313.894  |  87.71  |
 | ^1A   |   14   |    15.1814051  |     413.10705  |   3331933.253  |  87.41  |
 | ^1A   |   15   |    15.2707571  |     415.53844  |   3351543.755  |  87.87  |
 +=============================================================================+
                                                                                
                                                                                
     Total energies in Hartree:                                                 
             1 ^1A       -347.1054949312                                        
             2 ^1A       -347.0479378276                                        
             3 ^1A       -347.0289062693                                        
             4 ^1A       -346.9829297509                                        
             5 ^1A       -346.9572445935                                        
             6 ^1A       -346.9255592165                                        
             7 ^1A       -346.9091250537                                        
             8 ^1A       -346.8729102717                                        
             9 ^1A       -346.8648179524                                        
            10 ^1A       -346.8385628807                                        
            11 ^1A       -346.8179483549                                        
            12 ^1A       -346.7977114507                                        
            13 ^1A       -346.7753163135                                        
            14 ^1A       -346.7451562913                                        
            15 ^1A       -346.6558042707                                        
                                                                                
                                                                                
 +=============================================================================+
 |  sym. | Exci.  |        CCSD       Length   Gauge Oscillator Strength       |
 |(spin, |        +------------------------------------------------------------+
 | spat) |        | Dipole Strength(a.u.) | Oscillator strength  | Direction   |
 +=============================================================================+
 | ^1A   |    1   |        0.0008656      |      0.0085527       |  (Y,Z)      |
 | ^1A   |    2   |        0.0039515      |      0.0391950       |  (Y,Z)      |
 | ^1A   |    3   |        0.0036903      |      0.0366508       |  (Y,Z)      |
 | ^1A   |    4   |        0.0009222      |      0.0091871       |  (Y,Z)      |
 | ^1A   |    5   |        0.0006326      |      0.0063135       |  (Y,Z)      |
 | ^1A   |    6   |        0.0001449      |      0.0014490       |  (Y,Z)      |
 | ^1A   |    7   |        0.0004470      |      0.0044747       |  (Y,Z)      |
 | ^1A   |    8   |        0.0004495      |      0.0045110       |  (Y,Z)      |
 | ^1A   |    9   |        0.0000664      |      0.0006670       |  (Y,Z)      |
 | ^1A   |   10   |        0.0005133      |      0.0051634       |  (Y,Z)      |
 | ^1A   |   11   |        0.0000249      |      0.0002505       |  (Y,Z)      |
 | ^1A   |   12   |        0.0000303      |      0.0003058       |  (Y,Z)      |
 | ^1A   |   13   |        0.0001132      |      0.0011435       |  (Y,Z)      |
 | ^1A   |   14   |        0.0001747      |      0.0017678       |  (Y,Z)      |
 | ^1A   |   15   |        0.0005773      |      0.0058774       |  (Y,Z)      |
 +=============================================================================+

  1 a.u. =        27.21138 eV.  
  1 a.u. =    219474.62934 cm-1.
  

 *******************************************************************************
 *******************************************************************************
 *                                                                             *
 *                                                                             *
 *                      END OF COUPLED CLUSTER CALCULATION                     *
 *                                                                             *
 *                                                                             *
 *******************************************************************************
 *******************************************************************************


 CPU and wall time for CC :  562952.346   73083.427

 
     Date and time (Linux)  : Wed Nov 28 06:41:34 2018
     Host name              : n-62-24-1                               


                      .-------------------------------------.
                      | End of Coupled Cluster Section (CC) |
                      `-------------------------------------'

  Total CPU  time used in DALTON: 156 hours 34 minutes 31 seconds
  Total wall time used in DALTON:  20 hours 20 minutes 22 seconds

 
     Date and time (Linux)  : Wed Nov 28 06:41:34 2018
     Host name              : n-62-24-1                               
  

 +---------------------------------------------------------+ 
 | List of selected calculated molecular properties (a.u.) | 
 +---------------------------------------------------------+ 

  Properties are read from unit number                      4

 CCSD       properties :
 #  1 1 CCSD/MM  Ground state Energy =    -362.3331562812
 #  2 1 E_QM/MM  Ground state Energy =      -0.4065949082
 #  3 1 Sy: 1 Sp: 1 Exc:  1 E_tot:   -347.1054949312 w:     14.8210664419 E_grs:   -361.9265613731
 #  4 1 Exctot   Excited state Energy =    -347.1054949312
 #  5 1 Sy: 1 Sp: 1 Exc:  2 E_tot:   -347.0479378276 w:     14.8786235454 E_grs:   -361.9265613731
 #  6 1 Exctot   Excited state Energy =    -347.0479378276
 #  7 1 Sy: 1 Sp: 1 Exc:  3 E_tot:   -347.0289062693 w:     14.8976551037 E_grs:   -361.9265613731
 #  8 1 Exctot   Excited state Energy =    -347.0289062693
 #  9 1 Sy: 1 Sp: 1 Exc:  4 E_tot:   -346.9829297509 w:     14.9436316222 E_grs:   -361.9265613731
 # 10 1 Exctot   Excited state Energy =    -346.9829297509
 # 11 1 Sy: 1 Sp: 1 Exc:  5 E_tot:   -346.9572445935 w:     14.9693167795 E_grs:   -361.9265613731
 # 12 1 Exctot   Excited state Energy =    -346.9572445935
 # 13 1 Sy: 1 Sp: 1 Exc:  6 E_tot:   -346.9255592165 w:     15.0010021566 E_grs:   -361.9265613731
 # 14 1 Exctot   Excited state Energy =    -346.9255592165
 # 15 1 Sy: 1 Sp: 1 Exc:  7 E_tot:   -346.9091250537 w:     15.0174363194 E_grs:   -361.9265613731
 # 16 1 Exctot   Excited state Energy =    -346.9091250537
 # 17 1 Sy: 1 Sp: 1 Exc:  8 E_tot:   -346.8729102717 w:     15.0536511014 E_grs:   -361.9265613731
 # 18 1 Exctot   Excited state Energy =    -346.8729102717
 # 19 1 Sy: 1 Sp: 1 Exc:  9 E_tot:   -346.8648179524 w:     15.0617434206 E_grs:   -361.9265613731
 # 20 1 Exctot   Excited state Energy =    -346.8648179524
 # 21 1 Sy: 1 Sp: 1 Exc: 10 E_tot:   -346.8385628807 w:     15.0879984924 E_grs:   -361.9265613731
 # 22 1 Exctot   Excited state Energy =    -346.8385628807
 # 23 1 Sy: 1 Sp: 1 Exc: 11 E_tot:   -346.8179483549 w:     15.1086130182 E_grs:   -361.9265613731
 # 24 1 Exctot   Excited state Energy =    -346.8179483549
 # 25 1 Sy: 1 Sp: 1 Exc: 12 E_tot:   -346.7977114507 w:     15.1288499224 E_grs:   -361.9265613731
 # 26 1 Exctot   Excited state Energy =    -346.7977114507
 # 27 1 Sy: 1 Sp: 1 Exc: 13 E_tot:   -346.7753163135 w:     15.1512450596 E_grs:   -361.9265613731
 # 28 1 Exctot   Excited state Energy =    -346.7753163135
 # 29 1 Sy: 1 Sp: 1 Exc: 14 E_tot:   -346.7451562913 w:     15.1814050818 E_grs:   -361.9265613731
 # 30 1 Exctot   Excited state Energy =    -346.7451562913
 # 31 1 Sy: 1 Sp: 1 Exc: 15 E_tot:   -346.6558042707 w:     15.2707571024 E_grs:   -361.9265613731
 # 32 1 Exctot   Excited state Energy =    -346.6558042707
 # 33 1 |<O|XDIPLEN |i(14.821066)>| =     0.02008211
 # 35 1 |<O|XDIPLEN |i(14.878624)>| =     0.03139944
 # 37 1 |<O|XDIPLEN |i(14.897655)>| =     0.01391256
 # 39 1 |<O|XDIPLEN |i(14.943632)>| =     0.02272629
 # 41 1 |<O|XDIPLEN |i(14.969317)>| =     0.01996292
 # 43 1 |<O|XDIPLEN |i(15.001002)>| =     0.00538529
 # 45 1 |<O|XDIPLEN |i(15.017436)>| =     0.01917191
 # 47 1 |<O|XDIPLEN |i(15.053651)>| =     0.01585432
 # 49 1 |<O|XDIPLEN |i(15.061743)>| =     0.00170288
 # 51 1 |<O|XDIPLEN |i(15.087998)>| =     0.01690936
 # 53 1 |<O|XDIPLEN |i(15.108613)>| =     0.00399339
 # 55 1 |<O|XDIPLEN |i(15.128850)>| =     0.00165076
 # 57 1 |<O|XDIPLEN |i(15.151245)>| =     0.00809950
 # 59 1 |<O|XDIPLEN |i(15.181405)>| =     0.00609823
 # 61 1 |<O|XDIPLEN |i(15.270757)>| =     0.02313618
 # 63 1 |<O|YDIPLEN |i(14.821066)>| =     0.00294412
 # 65 1 |<O|YDIPLEN |i(14.878624)>| =     0.04410537
 # 67 1 |<O|YDIPLEN |i(14.897655)>| =     0.03967780
 # 69 1 |<O|YDIPLEN |i(14.943632)>| =     0.01753747
 # 71 1 |<O|YDIPLEN |i(14.969317)>| =     0.00225519
 # 73 1 |<O|YDIPLEN |i(15.001002)>| =     0.01051492
 # 75 1 |<O|YDIPLEN |i(15.017436)>| =     0.00147641
 # 77 1 |<O|YDIPLEN |i(15.053651)>| =     0.00469022
 # 79 1 |<O|YDIPLEN |i(15.061743)>| =     0.00765724
 # 81 1 |<O|YDIPLEN |i(15.087998)>| =     0.00512596
 # 83 1 |<O|YDIPLEN |i(15.108613)>| =     0.00148308
 # 85 1 |<O|YDIPLEN |i(15.128850)>| =     0.00141766
 # 87 1 |<O|YDIPLEN |i(15.151245)>| =     0.00174820
 # 89 1 |<O|YDIPLEN |i(15.181405)>| =     0.01162507
 # 91 1 |<O|YDIPLEN |i(15.270757)>| =     0.00324433
 # 93 1 |<O|ZDIPLEN |i(14.821066)>| =     0.02129866
 # 95 1 |<O|ZDIPLEN |i(14.878624)>| =     0.03194165
 # 97 1 |<O|ZDIPLEN |i(14.897655)>| =     0.04384490
 # 99 1 |<O|ZDIPLEN |i(14.943632)>| =     0.00990604
 #101 1 |<O|ZDIPLEN |i(14.969317)>| =     0.01513417
 #103 1 |<O|ZDIPLEN |i(15.001002)>| =     0.00230737
 #105 1 |<O|ZDIPLEN |i(15.017436)>| =     0.00878690
 #107 1 |<O|ZDIPLEN |i(15.053651)>| =     0.01327141
 #109 1 |<O|ZDIPLEN |i(15.061743)>| =     0.00221323
 #111 1 |<O|ZDIPLEN |i(15.087998)>| =     0.01418183
 #113 1 |<O|ZDIPLEN |i(15.108613)>| =     0.00259367
 #115 1 |<O|ZDIPLEN |i(15.128850)>| =     0.00505817
 #117 1 |<O|ZDIPLEN |i(15.151245)>| =     0.00667446
 #119 1 |<O|ZDIPLEN |i(15.181405)>| =     0.00152865
 #121 1 |<O|ZDIPLEN |i(15.270757)>| =     0.00561363

 THE_END   
