

     ************************************************************************
     *************** Dalton - An Electronic Structure Program ***************
     ************************************************************************

    This is output from DALTON release Dalton2017.alpha (2016)
         ( Web site: http://daltonprogram.org )

   ----------------------------------------------------------------------------

    NOTE:
     
    Dalton is an experimental code for the evaluation of molecular
    properties using (MC)SCF, DFT, CI, and CC wave functions.
    The authors accept no responsibility for the performance of
    the code or for the correctness of the results.
     
    The code (in whole or part) is provided under a licence and
    is not to be reproduced for further distribution without
    the written permission of the authors or their representatives.
     
    See the home page "http://daltonprogram.org" for further information.
     
    If results obtained with this code are published,
    the appropriate citations would be both of:
     
       K. Aidas, C. Angeli, K. L. Bak, V. Bakken, R. Bast,
       L. Boman, O. Christiansen, R. Cimiraglia, S. Coriani,
       P. Dahle, E. K. Dalskov, U. Ekstroem,
       T. Enevoldsen, J. J. Eriksen, P. Ettenhuber, B. Fernandez,
       L. Ferrighi, H. Fliegl, L. Frediani, K. Hald, A. Halkier,
       C. Haettig, H. Heiberg, T. Helgaker, A. C. Hennum,
       H. Hettema, E. Hjertenaes, S. Hoest, I.-M. Hoeyvik,
       M. F. Iozzi, B. Jansik, H. J. Aa. Jensen, D. Jonsson,
       P. Joergensen, J. Kauczor, S. Kirpekar,
       T. Kjaergaard, W. Klopper, S. Knecht, R. Kobayashi, H. Koch,
       J. Kongsted, A. Krapp, K. Kristensen, A. Ligabue,
       O. B. Lutnaes, J. I. Melo, K. V. Mikkelsen, R. H. Myhre,
       C. Neiss, C. B. Nielsen, P. Norman, J. Olsen,
       J. M. H. Olsen, A. Osted, M. J. Packer, F. Pawlowski,
       T. B. Pedersen, P. F. Provasi, S. Reine, Z. Rinkevicius,
       T. A. Ruden, K. Ruud, V. Rybkin, P. Salek, C. C. M. Samson,
       A. Sanchez de Meras, T. Saue, S. P. A. Sauer,
       B. Schimmelpfennig, K. Sneskov, A. H. Steindal,
       K. O. Sylvester-Hvid, P. R. Taylor, A. M. Teale,
       E. I. Tellgren, D. P. Tew, A. J. Thorvaldsen, L. Thoegersen,
       O. Vahtras, M. A. Watson, D. J. D. Wilson, M. Ziolkowski
       and H. Agren,
       "The Dalton quantum chemistry program system",
       WIREs Comput. Mol. Sci. 2014, 4:269–284 (doi: 10.1002/wcms.1172)
     
    and
     
       Dalton, a Molecular Electronic Structure Program,
       Release Dalton2017.alpha (2016), see http://daltonprogram.org
   ----------------------------------------------------------------------------

    Authors in alphabetical order (major contribution(s) in parenthesis):

  Kestutis Aidas,           Vilnius University,           Lithuania   (QM/MM)
  Celestino Angeli,         University of Ferrara,        Italy       (NEVPT2)
  Keld L. Bak,              UNI-C,                        Denmark     (AOSOPPA, non-adiabatic coupling, magnetic properties)
  Vebjoern Bakken,          University of Oslo,           Norway      (DALTON; geometry optimizer, symmetry detection)
  Radovan Bast,             UiT The Arctic U. of Norway,  Norway      (DALTON installation and execution frameworks)
  Pablo Baudin,             University of Valencia,       Spain       (Cholesky excitation energies)
  Linus Boman,              NTNU,                         Norway      (Cholesky decomposition and subsystems)
  Ove Christiansen,         Aarhus University,            Denmark     (CC module)
  Renzo Cimiraglia,         University of Ferrara,        Italy       (NEVPT2)
  Sonia Coriani,            University of Trieste,        Italy       (CC module, MCD in RESPONS)
  Janusz Cukras,            University of Trieste,        Italy       (MChD in RESPONS)
  Paal Dahle,               University of Oslo,           Norway      (Parallelization)
  Erik K. Dalskov,          UNI-C,                        Denmark     (SOPPA)
  Thomas Enevoldsen,        Univ. of Southern Denmark,    Denmark     (SOPPA)
  Janus J. Eriksen,         Aarhus University,            Denmark     (Polarizable embedding model, TDA)
  Rasmus Faber,             University of Copenhagen,     Denmark     (Vib.avg. NMR with SOPPA, parallel AO-SOPPA)
  Berta Fernandez,          U. of Santiago de Compostela, Spain       (doublet spin, ESR in RESPONS)
  Lara Ferrighi,            Aarhus University,            Denmark     (PCM Cubic response)
  Heike Fliegl,             University of Oslo,           Norway      (CCSD(R12))
  Luca Frediani,            UiT The Arctic U. of Norway,  Norway      (PCM)
  Bin Gao,                  UiT The Arctic U. of Norway,  Norway      (Gen1Int library)
  Christof Haettig,         Ruhr-University Bochum,       Germany     (CC module)
  Kasper Hald,              Aarhus University,            Denmark     (CC module)
  Asger Halkier,            Aarhus University,            Denmark     (CC module)
  Frederik Beyer Hansen,    University of Copenhagen,     Denmark     (Parallel AO-SOPPA)
  Erik D. Hedegaard,        Univ. of Southern Denmark,    Denmark     (Polarizable embedding model, QM/MM)
  Hanne Heiberg,            University of Oslo,           Norway      (geometry analysis, selected one-electron integrals)
  Trygve Helgaker,          University of Oslo,           Norway      (DALTON; ABACUS, ERI, DFT modules, London, and much more)
  Alf Christian Hennum,     University of Oslo,           Norway      (Parity violation)
  Hinne Hettema,            University of Auckland,       New Zealand (quadratic response in RESPONS; SIRIUS supersymmetry)
  Eirik Hjertenaes,         NTNU,                         Norway      (Cholesky decomposition)
  Pi A. B. Haase,           University of Copenhagen,     Denmark     (Triplet AO-SOPPA)
  Maria Francesca Iozzi,    University of Oslo,           Norway      (RPA)
  Brano Jansik              Technical Univ. of Ostrava    Czech Rep.  (DFT cubic response)
  Hans Joergen Aa. Jensen,  Univ. of Southern Denmark,    Denmark     (DALTON; SIRIUS, RESPONS, ABACUS modules, London, and much more)
  Dan Jonsson,              UiT The Arctic U. of Norway,  Norway      (cubic response in RESPONS module)
  Poul Joergensen,          Aarhus University,            Denmark     (RESPONS, ABACUS, and CC modules)
  Maciej Kaminski,          University of Warsaw,         Poland      (CPPh in RESPONS)
  Joanna Kauczor,           Linkoeping University,        Sweden      (Complex polarization propagator (CPP) module)
  Sheela Kirpekar,          Univ. of Southern Denmark,    Denmark     (Mass-velocity & Darwin integrals)
  Wim Klopper,              KIT Karlsruhe,                Germany     (R12 code in CC, SIRIUS, and ABACUS modules)
  Stefan Knecht,            ETH Zurich,                   Switzerland (Parallel CI and MCSCF)
  Rika Kobayashi,           Australian National Univ.,    Australia   (DIIS in CC, London in MCSCF)
  Henrik Koch,              NTNU,                         Norway      (CC module, Cholesky decomposition)
  Jacob Kongsted,           Univ. of Southern Denmark,    Denmark     (Polarizable embedding model, QM/MM)
  Andrea Ligabue,           University of Modena,         Italy       (CTOCD, AOSOPPA)
  Nanna H. List             Univ. of Southern Denmark,    Denmark     (Polarizable embedding model)
  Ola B. Lutnaes,           University of Oslo,           Norway      (DFT Hessian)
  Juan I. Melo,             University of Buenos Aires,   Argentina   (LRESC, Relativistic Effects on NMR Shieldings)
  Kurt V. Mikkelsen,        University of Copenhagen,     Denmark     (MC-SCRF and QM/MM)
  Rolf H. Myhre,            NTNU,                         Norway      (Cholesky, subsystems and ECC2)
  Christian Neiss,          Univ. Erlangen-Nuernberg,     Germany     (CCSD(R12))
  Christian B. Nielsen,     University of Copenhagen,     Denmark     (QM/MM)
  Patrick Norman,           Linkoeping University,        Sweden      (Cubic response and complex frequency response in RESPONS)
  Jeppe Olsen,              Aarhus University,            Denmark     (SIRIUS CI/density modules)
  Jogvan Magnus H. Olsen,   Univ. of Southern Denmark,    Denmark     (Polarizable embedding model, QM/MM)
  Anders Osted,             Copenhagen University,        Denmark     (QM/MM)
  Martin J. Packer,         University of Sheffield,      UK          (SOPPA)
  Filip Pawlowski,          Kazimierz Wielki University,  Poland      (CC3)
  Morten N. Pedersen,       Univ. of Southern Denmark,    Denmark     (Polarizable embedding model)
  Thomas B. Pedersen,       University of Oslo,           Norway      (Cholesky decomposition)
  Patricio F. Provasi,      University of Northeastern,   Argentina   (Analysis of coupling constants in localized orbitals)
  Zilvinas Rinkevicius,     KTH Stockholm,                Sweden      (open-shell DFT, ESR)
  Elias Rudberg,            KTH Stockholm,                Sweden      (DFT grid and basis info)
  Torgeir A. Ruden,         University of Oslo,           Norway      (Numerical derivatives in ABACUS)
  Kenneth Ruud,             UiT The Arctic U. of Norway,  Norway      (DALTON; ABACUS magnetic properties and much more)
  Pawel Salek,              KTH Stockholm,                Sweden      (DALTON; DFT code)
  Claire C. M. Samson       University of Karlsruhe       Germany     (Boys localization, r12 integrals in ERI)
  Alfredo Sanchez de Meras, University of Valencia,       Spain       (CC module, Cholesky decomposition)
  Trond Saue,               Paul Sabatier University,     France      (direct Fock matrix construction)
  Stephan P. A. Sauer,      University of Copenhagen,     Denmark     (SOPPA(CCSD), SOPPA prop., AOSOPPA, vibrational g-factors)
  Bernd Schimmelpfennig,    Forschungszentrum Karlsruhe,  Germany     (AMFI module)
  Kristian Sneskov,         Aarhus University,            Denmark     (Polarizable embedding model, QM/MM)
  Arnfinn H. Steindal,      UiT The Arctic U. of Norway,  Norway      (parallel QM/MM, Polarizable embedding model)
  Casper Steinmann,         Univ. of Southern Denmark,    Denmark     (QFIT, Polarizable embedding model)
  K. O. Sylvester-Hvid,     University of Copenhagen,     Denmark     (MC-SCRF)
  Peter R. Taylor,          VLSCI/Univ. of Melbourne,     Australia   (Symmetry handling ABACUS, integral transformation)
  Andrew M. Teale,          University of Nottingham,     England     (DFT-AC, DFT-D)
  David P. Tew,             University of Bristol,        England     (CCSD(R12))
  Olav Vahtras,             KTH Stockholm,                Sweden      (triplet response, spin-orbit, ESR, TDDFT, open-shell DFT)
  David J. Wilson,          La Trobe University,          Australia   (DFT Hessian and DFT magnetizabilities)
  Hans Agren,               KTH Stockholm,                Sweden      (SIRIUS module, RESPONS, MC-SCRF solvation model)
 --------------------------------------------------------------------------------

     Date and time (Linux)  : Mon Nov 19 10:09:55 2018
     Host name              : n-62-29-28                              

 * Work memory size             :  1280000000 =  9.537 gigabytes.

 * Directories for basis set searches:
   1) /zhome/37/3/129401/NH3NH4/CCSD/AIMD_SAMPLING/nh3_4h2o
   2) /zhome/9a/4/124800/source/dalton/build-mlcc/basis


Compilation information
-----------------------

 Who compiled             | rfaber
 Host                     | hpclogin1
 System                   | Linux-2.6.32-696.1.1.el6.x86_64
 CMake generator          | Unix Makefiles
 Processor                | x86_64
 64-bit integers          | ON
 MPI                      | OFF
 Fortran compiler         | /opt/intel/2016update2/compilers_and_libraries_201
                          | 6.2.181/linux/bin/intel64/ifort
 Fortran compiler version | ifort (IFORT) 16.0.2 20160204
 C compiler               | /opt/intel/2016update2/compilers_and_libraries_201
                          | 6.2.181/linux/bin/intel64/icc
 C compiler version       | icc (ICC) 16.0.2 20160204
 C++ compiler             | /opt/intel/2016update2/compilers_and_libraries_201
                          | 6.2.181/linux/bin/intel64/icpc
 C++ compiler version     | icpc (ICC) 16.0.2 20160204
 Static linking           | OFF
 Last Git revision        | bb4d1599ca5680a9f3980451fc8bbefdba436d59
 Git branch               | mlcc
 Configuration time       | 2017-06-13 16:11:03.928841


   Content of the .dal input file
 ----------------------------------

**DALTON
.RUN WAVE FUNCTIONS
*QMMM
.QMMM
**INTEGRALS
.DIPLEN
**WAVE FUNCTIONS
.CC
*PRINT
!To check the origin of excit
.PRINTL
   0 11
*SCF INP
.THRESH
1.0D-7
*CC INP
.CCSD
.THRLEQ
 1.0D-9
.THRENR
 1.0D-10
.FROIMP
4
0
.PRINT
 1
.MAX IT
 1200
.MAXRED
 1200
.MXLRV
1199
*CCSLV
.CCMM
.MXSLIT
200
.MXINIT
4 5
*CCEXCI
.NCCEXC
 15
.CVSEPARA
1
1
*CCLRSD
.DIPOLE
**END OF DALTON INPUT


   Content of the .mol file
 ----------------------------

ATOMBASIS


Atomtypes=4 Charge=0 Nosymm Angstrom
   7.00000    1    Basis=6-311G**
N          0.000000        0.000000        0.000000
   1.00000    3    Basis=6-311G**
H          0.707573       -0.700906       -0.081377
H          0.286522        0.609193        0.753060
H         -0.897284       -0.431995        0.321111
   8.00000    4    Basis=6-311G**
O         -3.053761       -2.140658       -0.594801
O          1.135147       -2.805586       -1.228138
O          0.831673        1.378379        2.332509
O         -0.372397        1.593426       -2.044363
   1.00000    8    Basis=6-311G**
H         -3.502889       -1.324185       -0.256803
H         -2.607704       -1.763927       -1.398737
H          1.967183       -3.304864       -1.452500
H          0.433996       -2.989769       -1.938042
H          0.729697        2.113303        3.063758
H          1.833311        1.424084        2.155954
H          0.462033        2.129711       -2.103113
H         -0.211418        0.959230       -1.208993


       *******************************************************************
       *********** Output from DALTON general input processing ***********
       *******************************************************************

 --------------------------------------------------------------------------------
   Overall default print level:    0
   Print level for DALTON.STAT:    1

    HERMIT 1- and 2-electron integral sections will be executed
    "Old" integral transformation used (limited to max 255 basis functions)
    Wave function sections will be executed (SIRIUS module)
 --------------------------------------------------------------------------------


 Changes of defaults for *QMMM  :
 --------------------------------

 +------------------+
 |  WORD: | CHANGE: |
 +------------------+
 |   QMMM |       T |
 +------------------+
 


   ****************************************************************************
   *************** Output of molecule and basis set information ***************
   ****************************************************************************


    The two title cards from your ".mol" input:
    ------------------------------------------------------------------------
 1:                                                                         
 2:                                                                         
    ------------------------------------------------------------------------

  Coordinates are entered in Angstrom and converted to atomic units.
          - Conversion factor : 1 bohr = 0.52917721 A

  Atomic type no.    1
  --------------------
  Nuclear charge:   7.00000
  Number of symmetry independent centers:    1
  Number of basis sets to read;    2
  The basis set is "6-311G**" from the basis set library.
  Basis set file used for this atomic type with Z =   7 :
     "/zhome/9a/4/124800/source/dalton/build-mlcc/basis/6-311G**"

  Info about the basis set file: your basis has no documentation.
  Basis set: 6-311G**                                                                        

  Atomic type no.    2
  --------------------
  Nuclear charge:   1.00000
  Number of symmetry independent centers:    3
  Number of basis sets to read;    2
  The basis set is "6-311G**" from the basis set library.
  Basis set file used for this atomic type with Z =   1 :
     "/zhome/9a/4/124800/source/dalton/build-mlcc/basis/6-311G**"

  Info about the basis set file: your basis has no documentation.
  Basis set: 6-311G**                                                                        

  Atomic type no.    3
  --------------------
  Nuclear charge:   8.00000
  Number of symmetry independent centers:    4
  Number of basis sets to read;    2
  The basis set is "6-311G**" from the basis set library.
  Basis set file used for this atomic type with Z =   8 :
     "/zhome/9a/4/124800/source/dalton/build-mlcc/basis/6-311G**"

  Info about the basis set file: your basis has no documentation.
  Basis set: 6-311G**                                                                        

  Atomic type no.    4
  --------------------
  Nuclear charge:   1.00000
  Number of symmetry independent centers:    8
  Number of basis sets to read;    2
  The basis set is "6-311G**" from the basis set library.
  Basis set file used for this atomic type with Z =   1 :
     "/zhome/9a/4/124800/source/dalton/build-mlcc/basis/6-311G**"

  Info about the basis set file: your basis has no documentation.
  Basis set: 6-311G**                                                                        


                         SYMGRP: Point group information
                         -------------------------------

@    Point group: C1 


                                 Isotopic Masses
                                 ---------------

                           N          14.003074
                           H           1.007825
                           H           1.007825
                           H           1.007825
                           O          15.994915
                           O          15.994915
                           O          15.994915
                           O          15.994915
                           H           1.007825
                           H           1.007825
                           H           1.007825
                           H           1.007825
                           H           1.007825
                           H           1.007825
                           H           1.007825
                           H           1.007825

                       Total mass:    89.068809 amu
                       Natural abundance:  98.514 %

 Center-of-mass coordinates (a.u.):   -0.512319   -0.740174   -0.566721


  Atoms and basis sets
  --------------------

  Number of atom types :    4
  Total number of atoms:   16

  label    atoms   charge   prim   cont     basis
  ----------------------------------------------------------------------
  N           1    7.0000    31    18      [11s5p1d|4s3p1d]                                   
  H           3    1.0000     8     6      [5s1p|3s1p]                                        
  O           4    8.0000    31    18      [11s5p1d|4s3p1d]                                   
  H           8    1.0000     8     6      [5s1p|3s1p]                                        
  ----------------------------------------------------------------------
  total:     16   50.0000   243   156
  ----------------------------------------------------------------------
  Spherical harmonic basis used.

  Threshold for neglecting AO integrals:  1.00D-12


  Cartesian Coordinates (a.u.)
  ----------------------------

  Total number of coordinates:   48
  N       :     1  x   0.0000000000    2  y   0.0000000000    3  z   0.0000000000
  H       :     4  x   1.3371191834    5  y  -1.3245203794    6  z  -0.1537802429
  H       :     7  x   0.5414481088    8  y   1.1512079273    9  z   1.4230771557
  H       :    10  x  -1.6956210163   11  y  -0.8163522374   12  z   0.6068118457
  O       :    13  x  -5.7707719412   14  y  -4.0452573473   15  z  -1.1240109889
  O       :    16  x   2.1451169416   17  y  -5.3017891601   18  z  -2.3208444637
  O       :    19  x   1.5716341956   20  y   2.6047588064   21  z   4.4078031941
  O       :    22  x  -0.7037283398   23  y   3.0111387404   24  z  -3.8632861701
  H       :    25  x  -6.6195008563   26  y  -2.5023469888   27  z  -0.4852873381
  H       :    28  x  -4.9278463751   29  y  -3.3333389345   30  z  -2.6432298509
  H       :    31  x   3.7174371077   32  y  -6.2452878404   33  z  -2.7448271966
  H       :    34  x   0.8201335793   35  y  -5.6498445870   36  z  -3.6623685987
  H       :    37  x   1.3789274842   38  y   3.9935638891   39  z   5.7896635333
  H       :    40  x   3.4644556919   41  y   2.6911287390   42  z   4.0741625981
  H       :    43  x   0.8731158307   44  y   4.0245705154   45  z  -3.9743075799
  H       :    46  x  -0.3995221179   47  y   1.8126819909   48  z  -2.2846656570


   Interatomic separations (in Angstrom):
   --------------------------------------

            N           H           H           H           O           O     
            ------      ------      ------      ------      ------      ------
 N     :    0.000000
 H     :    0.999275    0.000000
 H     :    1.010104    1.609325    0.000000
 H     :    1.046351    1.676268    1.634640    0.000000
 O     :    3.776461    4.060064    4.531655    2.899796    0.000000
 O     :    3.266220    2.434658    4.038072    3.487819    4.288379    0.000000
 O     :    2.834115    3.188365    1.839428    3.211303    6.004112    5.502351
 O     :    2.618608    3.206807    3.037839    3.158054    4.820200    4.721252
 H     :    3.753618    4.259958    4.372346    2.814101    0.991255    4.964818
 H     :    3.445000    3.722434    4.317230    2.767211    0.993583    3.888842
 H     :    4.111167    3.201124    4.796765    4.427668    5.225026    0.995942
 H     :    3.589300    2.959889    4.496255    3.663098    3.832719    1.014643
 H     :    3.792772    4.220443    2.792504    4.080162    6.767259    6.540660
 H     :    3.168151    3.284588    2.241588    3.777278    6.645112    5.461650
 H     :    3.028569    3.487133    3.240448    3.779807    5.733399    5.057254
 H     :    1.557718    2.207287    2.054294    2.178793    4.250347    3.998430

            O           O           H           H           H           H     
            ------      ------      ------      ------      ------      ------
 O     :    0.000000
 O     :    4.544561    0.000000
 H     :    5.726850    4.637651    0.000000
 H     :    5.968718    4.084758    1.516160    0.000000
 H     :    6.127678    5.460511    5.939231    4.827729    0.000000
 H     :    6.121803    4.654809    4.593452    3.323474    1.638810    0.000000
 H     :    1.041747    5.251455    6.384139    6.788595    7.161319    7.151698
 H     :    1.018106    4.747261    6.469112    6.520879    5.949942    6.180694
 H     :    4.513965    0.993643    5.573048    5.007978    5.676564    5.122217
 H     :    3.715637    1.061113    4.117576    3.632323    4.794590    4.067267

            H           H           H           H     
            ------      ------      ------      ------
 H     :    0.000000
 H     :    1.586535    0.000000
 H     :    5.173825    4.529676    0.000000
 H     :    4.524819    3.964830    1.619572    0.000000


  Max    interatomic separation is    7.1613 Angstrom (   13.5329 Bohr)
  between atoms   13 and   11, "H     " and "H     ".

  Min HX interatomic separation is    0.9913 Angstrom (    1.8732 Bohr)

  Min YX interatomic separation is    2.6186 Angstrom (    4.9485 Bohr)


  Bond distances (Angstrom):
  --------------------------

                  atom 1     atom 2       distance
                  ------     ------       --------
  bond distance:  H          N            0.999275
  bond distance:  H          N            1.010104
  bond distance:  H          N            1.046351
  bond distance:  H          O            0.991255
  bond distance:  H          O            0.993583
  bond distance:  H          O            0.995942
  bond distance:  H          O            1.014643
  bond distance:  H          O            1.041747
  bond distance:  H          O            1.018106
  bond distance:  H          O            0.993643
  bond distance:  H          O            1.061113


  Bond angles (degrees):
  ----------------------

                  atom 1     atom 2     atom 3         angle
                  ------     ------     ------         -----
  bond angle:     H          N          H            106.432
  bond angle:     H          N          H            110.036
  bond angle:     H          N          H            105.275
  bond angle:     H          O          H             99.613
  bond angle:     H          O          H            109.189
  bond angle:     H          O          H            100.741
  bond angle:     H          O          H            103.988




 Principal moments of inertia (u*A**2) and principal axes
 --------------------------------------------------------

   IA     327.233658          0.406573    0.774952    0.483888
   IB     527.241337          0.811774   -0.549433    0.197852
   IC     554.129223         -0.419190   -0.312366    0.852471


 Rotational constants
 --------------------

               A                   B                   C

           1544.3980            958.5345            912.0237 MHz
            0.051516            0.031973            0.030422 cm-1


@  Nuclear repulsion energy :  179.675012142369 Hartree


                     .---------------------------------------.
                     | Starting in Integral Section (HERMIT) |
                     `---------------------------------------'



 ***************************************************************************************
 ****************** Output from **INTEGRALS input processing (HERMIT) ******************
 ***************************************************************************************



    *************************************************************************
    ****************** Output from HERMIT input processing ******************
    *************************************************************************


 Default print level:        1

 * Nuclear model: Point charge

 Calculation of one- and two-electron Hamiltonian integrals.

 The following one-electron property integrals are calculated as requested:
          - overlap integrals
          - dipole length integrals

 Center of mass  (bohr):     -0.512318864939     -0.740174396410     -0.566720796688
 Operator center (bohr):      0.000000000000      0.000000000000      0.000000000000
 Gauge origin    (bohr):      0.000000000000      0.000000000000      0.000000000000
 Dipole origin   (bohr):      0.000000000000      0.000000000000      0.000000000000
 
  *********************************** 
  QMMM electrostatic potential: 
  Multipole order                                    0
  Isotropic polarization  
  *********************************** 
 
  ---------------- 
  QMMM information 
  ---------------- 
 
  MM coordinates in au 
  -------------------- 
     1      8.696344      3.353385      8.844436
     2     10.470772      3.798304      8.487892
     3      8.023021      5.081368      9.002404
     4    -10.255328     -9.868195      2.652223
     5     -8.456095    -10.453126      3.096528
     6    -10.491160     -8.317839      3.747922
     7     -5.211899     -1.474413      6.435092
     8     -3.401964     -2.194373      6.651862
     9     -6.108249     -2.283322      5.083847
    10    -10.413003      6.386932      8.219044
    11    -10.150207      7.804457      9.543499
    12     -8.603071      5.701098      7.857277
    13      3.690828     -1.750433     -7.019463
    14      2.120836     -1.615990     -8.088296
    15      3.104765     -2.301433     -5.367996
    16    -10.946566      2.957000    -10.266302
    17    -12.230200      4.304575    -10.223845
    18     -9.413419      3.408467    -11.265098
    19      1.823731     -8.929449     10.518257
    20      0.064258     -8.616361     10.928568
    21      2.041734     -9.661557      8.746197
    22      3.600486     -3.772970      9.430455
    23      4.536093     -2.690713     10.674611
    24      2.862703     -5.289359     10.249355
    25     -8.798674     -0.065706     -6.907384
    26     -9.838906      0.735245     -8.282456
    27     -8.753844     -1.943151     -7.370788
    28     -7.062904     -5.055495     -7.769492
    29     -5.632593     -5.255880     -6.634443
    30     -7.978692     -6.592678     -7.773277
    31     -4.466551      5.498496    -11.480062
    32     -3.242133      6.902850    -11.383926
    33     -4.127547      4.294255    -10.036893
    34     10.684245      0.247728     -3.872251
    35     12.264493      0.049059     -4.934290
    36     11.471061      1.074436     -2.179111
    37     11.647225      6.959820     -4.242575
    38     11.640902      8.528342     -3.107554
    39     13.180159      7.152963     -5.297847
    40    -10.855084      7.267545      3.165329
    41    -10.111233      8.849856      2.627545
    42    -10.765360      7.078829      5.131780
    43     -0.785219     -2.279401    -10.077639
    44     -0.874199     -3.522676    -11.438743
    45     -2.192419     -1.185716    -10.371461
    46     -6.802710     -9.597883      8.469826
    47     -5.952656    -10.514489      7.038608
    48     -7.788933    -10.828340      9.654333
    49     -9.920629      3.878238     -0.515034
    50    -10.465008      5.042436     -1.898358
    51    -10.356359      5.110963      0.919628
    52     -9.486894     -6.226568      5.604914
    53    -10.320010     -4.996262      6.780143
    54     -8.281763     -7.213640      6.517522
    55      3.260307    -10.519765      5.685729
    56      2.907397    -11.928571      4.606300
    57      2.646560     -9.016250      4.731799
    58      9.351342    -11.432849      7.026814
    59     11.039589    -11.238228      6.386452
    60      8.356547    -10.010161      6.253725
    61     -1.454021      9.816912    -11.541011
    62     -1.690834     11.538097    -10.915844
    63      0.337074      9.608422    -11.263771
    64      9.874127    -10.162201     -9.320760
    65      9.451259     -8.399372     -9.659998
    66      8.328754    -10.981008     -9.820039
    67      6.600214      6.879397      0.881017
    68      7.999844      8.014308      0.914002
    69      7.162578      5.224169      1.617840
    70     -0.179951     -2.394704      5.836956
    71      1.183906     -2.968546      6.909540
    72      0.551290     -0.597616      5.337067
    73     -4.103926     -9.711732     -6.454225
    74     -5.812529    -10.259754     -6.728351
    75     -2.975019    -11.174058     -6.338905
    76     -4.258555      1.887859     -7.407781
    77     -5.987635      1.245513     -7.108279
    78     -3.415448      2.250309     -5.808102
    79     10.490811     -4.937246     -4.873647
    80     11.873212     -5.834252     -4.150897
    81     10.567742     -3.110657     -4.229285
    82      5.988814      8.139419      8.388012
    83      5.871742      9.052631     10.067215
    84      7.052314      9.309432      7.366865
    85      1.981202      6.431723     -9.407076
    86      3.757626      6.962790     -9.485868
    87      1.663456      6.682461     -7.602482
    88     -2.043975     -5.248584     -5.184677
    89     -1.549670     -4.266476     -6.649281
    90     -2.391796     -7.020813     -5.965125
    91      7.922766      6.412848     -9.472016
    92      7.260653      4.766932     -8.860531
    93      8.673987      7.155061     -7.944297
    94      6.329880      2.428455     -6.272043
    95      4.928959      1.193453     -6.031411
    96      7.893354      1.824965     -5.301150
    97      4.825357     11.572142    -10.264645
    98      3.693872     12.929364    -11.071225
    99      4.179838     11.385301     -8.562670
   100     -3.090613     -8.822801      0.310285
   101     -1.704900     -7.794854      1.082044
   102     -4.063093     -7.617836     -0.788879
   103     -6.159579     -1.269777    -11.683457
   104     -6.278403     -1.763651    -13.435469
   105     -6.060612     -2.895123    -10.841060
   106      6.205356     -8.545171     -2.756742
   107      7.116310     -7.816803     -4.200336
   108      5.302016    -10.075277     -3.489585
   109     -2.833939      7.462305      5.250935
   110     -3.807878      5.905341      5.442880
   111     -1.995925      7.366260      6.948712
   112     -2.916142     -7.753388    -11.658518
   113     -3.555136     -8.101777    -10.011571
   114     -4.209749     -8.571597    -12.825526
   115     -3.367021      7.562227     -4.370413
   116     -2.960825      5.754643     -4.012994
   117     -2.458914      8.541526     -3.131622
   118     -9.019119     -9.669239     -6.945594
   119    -10.520604    -10.079223     -7.838633
   120     -9.343647     -9.296417     -5.193589
   121      3.551521     11.020713     -5.394403
   122      4.167046      9.384425     -4.722541
   123      1.982103     11.038410     -4.413693
   124     -7.537231      7.852889     -7.697308
   125     -6.265432      8.285162     -6.441751
   126     -6.929323      6.426388     -8.721065
   127     -0.253216     11.256513     -1.665527
   128     -1.072195     12.916048     -1.198763
   129      0.847045     10.761457     -0.348928
   130      1.083435      5.933260      8.554178
   131      1.386573      5.305684     10.238173
   132      2.484156      7.197494      8.408416
   133     10.384457     11.435400     -1.501346
   134     11.031152     12.121215      0.146730
   135      8.943894     12.577254     -1.953247
   136      2.210078      9.152327      2.687877
   137      3.700645      8.076434      2.347892
   138      0.811263      8.134496      3.330931
   139      7.189027     -0.535486    -11.222127
   140      7.096260      0.148260     -9.515393
   141      8.190390      0.470453    -12.471911
   142     -8.150803     -0.766414      1.531445
   143     -8.173033      1.028952      1.424910
   144     -9.898138     -1.465413      1.766824
   145      4.148202      6.231767     -3.591459
   146      4.832018      6.199819     -1.877673
   147      5.046844      5.091924     -4.713109
   148     -9.500666     10.444520    -11.613799
   149     -8.664430      9.962901    -10.106388
   150    -11.090808     11.164640    -10.962091
   151     -9.056375     -7.483306     -2.536751
   152     -8.051702     -5.941237     -2.180374
   153     -9.332297     -8.120586     -0.884027
   154     11.464364     -2.800122      8.837266
   155     12.476518     -1.598667      9.842688
   156     10.942761     -3.875515     10.238857
   157      6.886209      2.779566      3.799436
   158      7.886105      1.136638      3.449466
   159      7.147269      3.185479      5.592815
   160      1.099817     -6.503094      2.479251
   161      0.864274     -4.847535      3.478530
   162      1.708911     -6.102521      0.795027
   163     -5.455019     11.717330      3.853626
   164     -4.513358     10.072964      4.294055
   165     -4.425332     12.751940      2.678486
   166     -5.716605      3.648636      7.363441
   167     -5.606438      1.837968      6.822777
   168     -4.933308      3.788069      9.075820
   169      5.944385     -4.907284      4.369740
   170      5.349320     -5.463261      6.089658
   171      4.834500     -5.798874      3.105410
   172      9.815744     -1.662294      3.535753
   173     10.482373     -1.207783      5.173290
   174      8.256380     -2.650020      3.938161
   175      9.835348     -5.077847    -10.271364
   176     10.235607     -4.777626     -8.510274
   177      8.453765     -3.951926    -10.642463
 
  MM charges 
  ---------- 
     1     -0.674440
     2      0.337220
     3      0.337220
     4     -0.674440
     5      0.337220
     6      0.337220
     7     -0.674440
     8      0.337220
     9      0.337220
    10     -0.674440
    11      0.337220
    12      0.337220
    13     -0.674440
    14      0.337220
    15      0.337220
    16     -0.674440
    17      0.337220
    18      0.337220
    19     -0.674440
    20      0.337220
    21      0.337220
    22     -0.674440
    23      0.337220
    24      0.337220
    25     -0.674440
    26      0.337220
    27      0.337220
    28     -0.674440
    29      0.337220
    30      0.337220
    31     -0.674440
    32      0.337220
    33      0.337220
    34     -0.674440
    35      0.337220
    36      0.337220
    37     -0.674440
    38      0.337220
    39      0.337220
    40     -0.674440
    41      0.337220
    42      0.337220
    43     -0.674440
    44      0.337220
    45      0.337220
    46     -0.674440
    47      0.337220
    48      0.337220
    49     -0.674440
    50      0.337220
    51      0.337220
    52     -0.674440
    53      0.337220
    54      0.337220
    55     -0.674440
    56      0.337220
    57      0.337220
    58     -0.674440
    59      0.337220
    60      0.337220
    61     -0.674440
    62      0.337220
    63      0.337220
    64     -0.674440
    65      0.337220
    66      0.337220
    67     -0.674440
    68      0.337220
    69      0.337220
    70     -0.674440
    71      0.337220
    72      0.337220
    73     -0.674440
    74      0.337220
    75      0.337220
    76     -0.674440
    77      0.337220
    78      0.337220
    79     -0.674440
    80      0.337220
    81      0.337220
    82     -0.674440
    83      0.337220
    84      0.337220
    85     -0.674440
    86      0.337220
    87      0.337220
    88     -0.674440
    89      0.337220
    90      0.337220
    91     -0.674440
    92      0.337220
    93      0.337220
    94     -0.674440
    95      0.337220
    96      0.337220
    97     -0.674440
    98      0.337220
    99      0.337220
   100     -0.674440
   101      0.337220
   102      0.337220
   103     -0.674440
   104      0.337220
   105      0.337220
   106     -0.674440
   107      0.337220
   108      0.337220
   109     -0.674440
   110      0.337220
   111      0.337220
   112     -0.674440
   113      0.337220
   114      0.337220
   115     -0.674440
   116      0.337220
   117      0.337220
   118     -0.674440
   119      0.337220
   120      0.337220
   121     -0.674440
   122      0.337220
   123      0.337220
   124     -0.674440
   125      0.337220
   126      0.337220
   127     -0.674440
   128      0.337220
   129      0.337220
   130     -0.674440
   131      0.337220
   132      0.337220
   133     -0.674440
   134      0.337220
   135      0.337220
   136     -0.674440
   137      0.337220
   138      0.337220
   139     -0.674440
   140      0.337220
   141      0.337220
   142     -0.674440
   143      0.337220
   144      0.337220
   145     -0.674440
   146      0.337220
   147      0.337220
   148     -0.674440
   149      0.337220
   150      0.337220
   151     -0.674440
   152      0.337220
   153      0.337220
   154     -0.674440
   155      0.337220
   156      0.337220
   157     -0.674440
   158      0.337220
   159      0.337220
   160     -0.674440
   161      0.337220
   162      0.337220
   163     -0.674440
   164      0.337220
   165      0.337220
   166     -0.674440
   167      0.337220
   168      0.337220
   169     -0.674440
   170      0.337220
   171      0.337220
   172     -0.674440
   173      0.337220
   174      0.337220
   175     -0.674440
   176      0.337220
   177      0.337220
 
  MM isotropic polarizabilities in au 
  ----------------------------------- 
     1      5.739350
     2      2.308390
     3      2.308390
     4      5.739350
     5      2.308390
     6      2.308390
     7      5.739350
     8      2.308390
     9      2.308390
    10      5.739350
    11      2.308390
    12      2.308390
    13      5.739350
    14      2.308390
    15      2.308390
    16      5.739350
    17      2.308390
    18      2.308390
    19      5.739350
    20      2.308390
    21      2.308390
    22      5.739350
    23      2.308390
    24      2.308390
    25      5.739350
    26      2.308390
    27      2.308390
    28      5.739350
    29      2.308390
    30      2.308390
    31      5.739350
    32      2.308390
    33      2.308390
    34      5.739350
    35      2.308390
    36      2.308390
    37      5.739350
    38      2.308390
    39      2.308390
    40      5.739350
    41      2.308390
    42      2.308390
    43      5.739350
    44      2.308390
    45      2.308390
    46      5.739350
    47      2.308390
    48      2.308390
    49      5.739350
    50      2.308390
    51      2.308390
    52      5.739350
    53      2.308390
    54      2.308390
    55      5.739350
    56      2.308390
    57      2.308390
    58      5.739350
    59      2.308390
    60      2.308390
    61      5.739350
    62      2.308390
    63      2.308390
    64      5.739350
    65      2.308390
    66      2.308390
    67      5.739350
    68      2.308390
    69      2.308390
    70      5.739350
    71      2.308390
    72      2.308390
    73      5.739350
    74      2.308390
    75      2.308390
    76      5.739350
    77      2.308390
    78      2.308390
    79      5.739350
    80      2.308390
    81      2.308390
    82      5.739350
    83      2.308390
    84      2.308390
    85      5.739350
    86      2.308390
    87      2.308390
    88      5.739350
    89      2.308390
    90      2.308390
    91      5.739350
    92      2.308390
    93      2.308390
    94      5.739350
    95      2.308390
    96      2.308390
    97      5.739350
    98      2.308390
    99      2.308390
   100      5.739350
   101      2.308390
   102      2.308390
   103      5.739350
   104      2.308390
   105      2.308390
   106      5.739350
   107      2.308390
   108      2.308390
   109      5.739350
   110      2.308390
   111      2.308390
   112      5.739350
   113      2.308390
   114      2.308390
   115      5.739350
   116      2.308390
   117      2.308390
   118      5.739350
   119      2.308390
   120      2.308390
   121      5.739350
   122      2.308390
   123      2.308390
   124      5.739350
   125      2.308390
   126      2.308390
   127      5.739350
   128      2.308390
   129      2.308390
   130      5.739350
   131      2.308390
   132      2.308390
   133      5.739350
   134      2.308390
   135      2.308390
   136      5.739350
   137      2.308390
   138      2.308390
   139      5.739350
   140      2.308390
   141      2.308390
   142      5.739350
   143      2.308390
   144      2.308390
   145      5.739350
   146      2.308390
   147      2.308390
   148      5.739350
   149      2.308390
   150      2.308390
   151      5.739350
   152      2.308390
   153      2.308390
   154      5.739350
   155      2.308390
   156      2.308390
   157      5.739350
   158      2.308390
   159      2.308390
   160      5.739350
   161      2.308390
   162      2.308390
   163      5.739350
   164      2.308390
   165      2.308390
   166      5.739350
   167      2.308390
   168      2.308390
   169      5.739350
   170      2.308390
   171      2.308390
   172      5.739350
   173      2.308390
   174      2.308390
   175      5.739350
   176      2.308390
   177      2.308390


     ************************************************************************
     ************************** Output from HERINT **************************
     ************************************************************************



                      Nuclear contribution to dipole moments
                      --------------------------------------

                 au               Debye          C m (/(10**-30)

      x    -23.57184653       -59.91365388      -199.85043747
      y    -36.04772959       -91.62418359      -305.62537896
      z    -27.25745876       -69.28154516      -231.09835925


  Time used in HUCKEL     is       0.54 seconds
  Time used in OVERLAP    is       0.31 seconds
  Time used in POPOVLP    is       0.28 seconds
  Time used in DIPLEN     is       0.47 seconds
  Time used in QUADRUP    is       1.30 seconds
  Time used in KINENE     is       0.39 seconds

 Threshold for neglecting two-electron integrals:  1.00D-12
 HERMIT - Number of two-electron integrals written:    27310218 ( 36.4% )
 HERMIT - Megabytes written:                            312.721

  Time used in TWOINT     is      14.57 seconds
  Total CPU  time used in HERMIT:  17.91 seconds
  Total wall time used in HERMIT:   6.45 seconds


                        .----------------------------------.
                        | End of Integral Section (HERMIT) |
                        `----------------------------------'



                   .--------------------------------------------.
                   | Starting in Wave Function Section (SIRIUS) |
                   `--------------------------------------------'

NCCEXCI for singlet:   15
 CCSD_INPUT: core-val requested
 Requested number of core orbs per sym
                     1
 Indices of requested core orbs
                     1

 *** Output from Huckel module :

     Using EWMO model:          T
     Using EHT  model:          F
     Number of Huckel orbitals each symmetry:   36

 EWMO - Energy Weighted Maximum Overlap - is a Huckel type method,
        which normally is better than Extended Huckel Theory.
 Reference: Linderberg and Ohrn, Propagators in Quantum Chemistry (Wiley, 1973)

 Huckel EWMO eigenvalues for symmetry :  1
          -20.684447     -20.684267     -20.684057     -20.684002     -15.674171
           -1.733689      -1.595709      -1.578533      -1.576393      -1.439952
           -0.813793      -0.798287      -0.782214      -0.762988      -0.757484
           -0.729078      -0.704859      -0.693148      -0.667981      -0.643253
           -0.615170      -0.614113      -0.610175      -0.588360      -0.504050
           -0.260453      -0.251265      -0.239847      -0.226620      -0.191789
           -0.183137      -0.181499      -0.179494      -0.157545      -0.145112
           -0.138864

 **********************************************************************
 *SIRIUS* a direct, restricted step, second order MCSCF program       *
 **********************************************************************

 
     Date and time (Linux)  : Mon Nov 19 10:10:02 2018
     Host name              : n-62-29-28                              

 Title lines from ".mol" input file:
                                                                             
                                                                             

 Print level on unit LUPRI =   2 is   0
 Print level on unit LUW4  =   2 is  11

@    (Integral direct) CC calculation.

@    This is a combination run starting with
@              a restricted, closed shell Hartree-Fock calculation


 Initial molecular orbitals are obtained according to
 ".MOSTART EWMO  " input option

@    QM part is embedded in an environment :

@         Model: QMMM

     Wave function specification
     ============================

     For the specification of the Coupled Cluster: see later.

@    Wave function type        --- CC ---
@    Number of closed shell electrons          50
@    Number of electrons in active shells       0
@    Total charge of the molecule               0

@    Spin multiplicity and 2 M_S                1         0
@    Total number of symmetries                 1 (point group: C1 )
@    Reference state symmetry                   1 (irrep name : A  )

     Orbital specifications
     ======================
@    Abelian symmetry species          All |    1
@                                          |  A  
                                       --- |  ---
@    Occupied SCF orbitals              25 |   25
@    Secondary orbitals                131 |  131
@    Total number of orbitals          156 |  156
@    Number of basis functions         156 |  156

     Optimization information
     ========================
@    Number of configurations                 1
@    Number of orbital rotations           3275
     ------------------------------------------
@    Total number of variables             3276

     Maximum number of Fock   iterations      0
     Maximum number of DIIS   iterations     60
     Maximum number of QC-SCF iterations     60
     Threshold for SCF convergence     1.00D-07


 Changes of defaults for CC:
 ---------------------------


 -Implicit frozen core calculation
 -Excitation energies calculated
 -One-photon absorption strengths will be calculated
 -Oscillator strengths calculated
  
* Read MO coefficients from SIRIUS.RST with label "NEWORB  " and header info: 19Nov18  REORTHO 


 ***********************************************
 ***** DIIS acceleration of SCF iterations *****
 ***********************************************

 C1-DIIS algorithm; max error vectors =    8
 -----------------------------------------------------------------------------

 *** DIIS iteration number    1
 RDSUPM called. NFMAT, ISYMDM(1:NFMAT)                     1
                     1

Calculating AOSUPINT
     (Precalculated two-electron integrals are transformed to P-supermatrix elements.
      Threshold for discarding integrals :  1.00D-12 )
  CPU  time used in FORMSUP    is   6.82 seconds
  WALL time used in FORMSUP    is  10.07 seconds

 ITDIIS, energy, error norm, change in energy, scr.thr., difden:
@ DIIS iter.   1    -359.886863950        3.81881D+00   -3.60D+02  -20    F

 (DIIS_RED) Control Parameters C2DIIS =         F NEVC =    1


 (DIIS_RED) B matrix:

               Column   1
       1      14.58330790
    ==== End of matrix output ====

 DIIS C vector; C2DIIS = F, LAMBDA = -1.46D+01
    1.000000
* Read MO coefficients from SIRIUS.RST with label "NEWORB  " and header info: 19Nov18  DIIS   1
      Virial theorem: -V/T =      1.997681
@      MULPOP N      -0.28; H       0.16; H       0.17; H       0.16; O      -0.65; O      -0.62; O      -0.57; O      -0.92; H       0.33; H       0.33; 
@             H       0.32; H       0.32; H       0.30; H       0.32; H       0.32; H       0.32; 
   1  Level shift: doubly occupied orbital energies shifted by -2.00D-01

 DIIS Fock eigenvalues in symmetry 1
      -20.76083      -20.72922      -20.70807      -20.40421      -16.05036
       -1.57371       -1.54254       -1.53360       -1.48372       -1.37603
       -0.99069       -0.97563       -0.93573       -0.92489       -0.89690
       -0.87348       -0.82860       -0.80034       -0.79209       -0.78864
       -0.75956       -0.74278       -0.71629       -0.62516       -0.57510
        0.08390        0.12403        0.15784        0.18178        0.21158
        0.23010        0.24331        0.26668        0.30175        0.31398
        0.38165        0.40015        0.41488        0.49176        0.50121
        0.52386        0.52860        0.55152        0.55377        0.62019
        0.63884        0.65916        0.79388        0.84173        0.87034
        0.90838        0.93399        0.97356        1.01847        1.03131
        1.03768        1.07315        1.08441        1.09801        1.11083
        1.12443        1.20788        1.21072        1.23412        1.25403
        1.32710        1.35370        1.40946        1.41488        1.42047
        1.44586        1.47252        1.49385        1.52489        1.54095
        1.55907        1.61208        1.64900        1.67053        1.69785
        1.70765        1.72687        1.80185        1.80924        1.82366
        1.83959        1.90776        1.93722        2.01361        2.06106
        2.12125        2.16243        2.19137        2.20458        2.25414
        2.27863        2.33455        2.34462        2.39890        2.48250
        2.51730        2.57616        2.58809        2.62578        2.64177
        2.66823        2.75407        2.76286        2.79272        2.80009
        2.83836        2.86804        3.03342        3.09017        3.25390
        3.28642        3.37501        3.38573        3.44103        3.45241
        3.46755        3.47062        3.54240        3.57067        3.58860
        3.63430        3.64420        3.76483        3.88221        3.94326
        3.97252        4.03490        4.13953        4.15102        4.21912
        4.26601        4.64708        4.96657        5.06333        5.27673
        5.29244        5.35306        5.53493        5.69631        5.72899
        5.77412        5.90258        5.93183        6.03651        6.04953
        6.30746       36.73646       51.49427       51.52432       51.55062
       51.88563
 Time used in FCKEIG, thr_jaco:   4.49D-01  4.50D-02  1.67D-04
 CPU and wall times used in FCKEIG, THR_FCKEIG:   4.49D-01  4.50D-02  3.82D-02
 -----------------------------------------------------------------------------

 *** DIIS iteration number    2
 RDSUPM called. NFMAT, ISYMDM(1:NFMAT)                     1
                     1

 ITDIIS, energy, error norm, change in energy, scr.thr., difden:
@ DIIS iter.   2    -360.674489011        1.02107D+00   -7.88D-01  -20    F

 (DIIS_RED) Control Parameters C2DIIS =         F NEVC =    2


 (DIIS_RED) B matrix:

               Column   1     Column   2
       1      14.58330790
       2       0.55716128     1.04257550
    ==== End of matrix output ====

 DIIS C vector; C2DIIS = F, LAMBDA = -1.03D+00
    0.033450    0.966550
* Read MO coefficients from SIRIUS.RST with label "NEWORB  " and header info: 19Nov18  DIIS   2
      Virial theorem: -V/T =      2.004920
@      MULPOP N      -0.67; H       0.23; H       0.25; H       0.24; O      -0.61; O      -0.62; O      -0.57; O      -0.66; H       0.34; H       0.28; 
@             H       0.31; H       0.33; H       0.30; H       0.30; H       0.21; H       0.32; 
   2  Level shift: doubly occupied orbital energies shifted by -1.00D-01

 DIIS Fock eigenvalues in symmetry 1
      -20.73184      -20.70912      -20.68039      -20.66481      -15.52630
       -1.46789       -1.43414       -1.42646       -1.38974       -1.22099
       -0.81833       -0.80080       -0.77281       -0.76129       -0.75865
       -0.72233       -0.69892       -0.69042       -0.68670       -0.66726
       -0.65688       -0.63521       -0.62246       -0.58632       -0.51065
        0.12641        0.15801        0.19273        0.21167        0.23727
        0.24334        0.27917        0.28794        0.32406        0.36028
        0.40680        0.45723        0.48650        0.53973        0.55358
        0.56597        0.57151        0.58419        0.59277        0.63892
        0.67447        0.70664        0.89201        0.93565        0.94599
        0.95587        0.97467        0.98317        1.01015        1.02760
        1.06268        1.07554        1.08398        1.11501        1.13330
        1.15014        1.17088        1.28255        1.32576        1.34279
        1.35380        1.38929        1.44896        1.46494        1.47846
        1.50004        1.52304        1.54416        1.55363        1.58834
        1.59699        1.65353        1.68836        1.70125        1.73236
        1.74937        1.80309        1.86439        1.87284        1.89791
        1.91928        1.96487        2.02589        2.07468        2.11194
        2.20788        2.22935        2.24522        2.27345        2.31304
        2.33231        2.37844        2.40489        2.49803        2.55897
        2.58926        2.63404        2.65063        2.68638        2.71839
        2.74814        2.81929        2.83285        2.85951        2.89368
        2.99861        3.02147        3.13743        3.23529        3.37287
        3.39744        3.40775        3.45433        3.47047        3.47719
        3.48987        3.49157        3.51651        3.56431        3.57278
        3.62099        3.65882        3.66758        3.89926        3.96197
        3.97426        3.99678        4.16205        4.16636        4.19289
        4.23710        4.78184        5.22359        5.26566        5.29374
        5.30351        5.33673        5.35306        5.69640        5.72516
        5.73994        5.77460        5.90711        6.04941        6.06535
        6.13966       37.15251       51.42559       51.47534       51.48599
       51.49934
 Time used in FCKEIG, thr_jaco:   3.19D-01  3.20D-02  4.46D-05
 CPU and wall times used in FCKEIG, THR_FCKEIG:   3.19D-01  3.20D-02  1.02D-02
 -----------------------------------------------------------------------------

 *** DIIS iteration number    3
 RDSUPM called. NFMAT, ISYMDM(1:NFMAT)                     1
                     1

 ITDIIS, energy, error norm, change in energy, scr.thr., difden:
@ DIIS iter.   3    -360.738068358        3.94949D-01   -6.36D-02  -20    F

 (DIIS_RED) Control Parameters C2DIIS =         F NEVC =    3


 (DIIS_RED) B matrix:

               Column   1     Column   2     Column   3
       1      14.58330790
       2       0.55716128     1.04257550
       3       0.78617555    -0.00761530     0.15598484
    ==== End of matrix output ====

 DIIS C vector; C2DIIS = F, LAMBDA = -1.05D-01
   -0.047205    0.132240    0.914964
* Read MO coefficients from SIRIUS.RST with label "NEWORB  " and header info: 19Nov18  DIIS   3
      Virial theorem: -V/T =      2.002106
@      MULPOP N      -0.58; H       0.19; H       0.23; H       0.21; O      -0.66; O      -0.68; O      -0.63; O      -0.76; H       0.37; H       0.30; 
@             H       0.33; H       0.36; H       0.33; H       0.33; H       0.28; H       0.38; 
   3  Level shift: doubly occupied orbital energies shifted by -5.00D-02

 DIIS Fock eigenvalues in symmetry 1
      -20.63499      -20.60298      -20.58718      -20.48889      -15.60776
       -1.39772       -1.37192       -1.36454       -1.28611       -1.20252
       -0.74938       -0.73746       -0.71023       -0.70855       -0.69156
       -0.67302       -0.64092       -0.62654       -0.62340       -0.58968
       -0.57094       -0.56435       -0.55139       -0.47434       -0.46648
        0.13220        0.16288        0.19674        0.21661        0.24353
        0.24813        0.28264        0.29160        0.32791        0.36226
        0.41156        0.46253        0.48801        0.54828        0.56627
        0.57498        0.57977        0.59253        0.60093        0.65275
        0.68359        0.71451        0.89410        0.93985        0.95194
        0.96395        0.97787        0.99180        1.03507        1.05585
        1.07737        1.09115        1.09410        1.12393        1.14334
        1.16731        1.19896        1.28787        1.32757        1.34531
        1.36358        1.39509        1.46184        1.47517        1.48973
        1.51202        1.53332        1.55988        1.56633        1.59945
        1.61301        1.67180        1.70405        1.71247        1.74378
        1.76275        1.81021        1.87343        1.88204        1.90614
        1.92294        1.97511        2.02966        2.08464        2.12575
        2.21924        2.23229        2.25203        2.28820        2.33213
        2.34815        2.38693        2.41853        2.50400        2.56996
        2.60088        2.64556        2.66155        2.69880        2.72691
        2.75712        2.82890        2.84263        2.86964        2.89883
        2.97912        2.99853        3.14199        3.22048        3.38486
        3.41474        3.43230        3.44467        3.49268        3.50876
        3.51126        3.52014        3.55471        3.58346        3.59392
        3.63865        3.68745        3.72174        3.92533        3.98070
        4.01328        4.02758        4.18417        4.19531        4.24666
        4.25745        4.75543        5.17381        5.26837        5.30330
        5.31649        5.37157        5.42333        5.71875        5.74807
        5.79800        5.83931        5.94095        6.07209        6.08832
        6.22845       37.02525       51.47262       51.50329       51.52441
       51.65678
 Time used in FCKEIG, thr_jaco:   2.83D-01  2.90D-02  1.73D-05
 CPU and wall times used in FCKEIG, THR_FCKEIG:   2.83D-01  2.90D-02  3.95D-03
 -----------------------------------------------------------------------------

 *** DIIS iteration number    4
 RDSUPM called. NFMAT, ISYMDM(1:NFMAT)                     1
                     1

 ITDIIS, energy, error norm, change in energy, scr.thr., difden:
@ DIIS iter.   4    -360.748209569        1.07785D-01   -1.01D-02  -20    F

 (DIIS_RED) Control Parameters C2DIIS =         F NEVC =    4


 (DIIS_RED) B matrix:

               Column   1     Column   2     Column   3     Column   4
       1      14.58330790
       2       0.55716128     1.04257550
       3       0.78617555    -0.00761530     0.15598484
       4       0.01994346     0.08980092    -0.00384208     0.01161764
    ==== End of matrix output ====

 DIIS C vector; C2DIIS = F, LAMBDA = -4.23D-03
   -0.000713   -0.084144    0.052034    1.032823
* Read MO coefficients from SIRIUS.RST with label "NEWORB  " and header info: 19Nov18  DIIS   4
      Virial theorem: -V/T =      2.003154
@      MULPOP N      -0.65; H       0.21; H       0.25; H       0.22; O      -0.68; O      -0.70; O      -0.64; O      -0.74; H       0.38; H       0.31; 
@             H       0.34; H       0.37; H       0.34; H       0.33; H       0.27; H       0.38; 
   4  Level shift: doubly occupied orbital energies shifted by -2.50D-02

 DIIS Fock eigenvalues in symmetry 1
      -20.61994      -20.58177      -20.56610      -20.50255      -15.56152
       -1.37624       -1.34876       -1.34187       -1.27331       -1.17009
       -0.72604       -0.71406       -0.68545       -0.68097       -0.66266
       -0.64969       -0.61498       -0.60167       -0.59720       -0.56423
       -0.55249       -0.53683       -0.52389       -0.45866       -0.43832
        0.13194        0.16283        0.19651        0.21630        0.24288
        0.24791        0.28332        0.29221        0.32849        0.36431
        0.41265        0.46524        0.49182        0.54871        0.56761
        0.57507        0.57958        0.59276        0.60026        0.65073
        0.68218        0.71617        0.89792        0.94480        0.95439
        0.96731        0.98119        0.99346        1.03265        1.05268
        1.07719        1.09234        1.09312        1.12438        1.14365
        1.16546        1.19302        1.28893        1.33224        1.34922
        1.36289        1.39731        1.46065        1.47473        1.48942
        1.51062        1.53374        1.55828        1.56439        1.59890
        1.61146        1.66970        1.70242        1.71067        1.74281
        1.76245        1.81351        1.87422        1.88166        1.90694
        1.92606        1.97309        2.03363        2.08656        2.12494
        2.21825        2.23551        2.25193        2.28683        2.32982
        2.34559        2.38751        2.41611        2.50793        2.57055
        2.60214        2.64392        2.66037        2.69778        2.73033
        2.76020        2.82850        2.84220        2.86764        2.90105
        2.98740        3.00755        3.14599        3.22758        3.38681
        3.41580        3.43140        3.45273        3.49247        3.50804
        3.50919        3.51130        3.55948        3.57313        3.59192
        3.63896        3.68721        3.71046        3.92312        3.98021
        4.01133        4.02049        4.18423        4.19316        4.23731
        4.25729        4.76158        5.18618        5.27847        5.30056
        5.31554        5.37012        5.40338        5.71791        5.74683
        5.79149        5.82323        5.93601        6.06991        6.08650
        6.21037       37.04629       51.46297       51.49970       51.52063
       51.61892
 Time used in FCKEIG, thr_jaco:   3.05D-01  3.10D-02  4.71D-06
 CPU and wall times used in FCKEIG, THR_FCKEIG:   3.06D-01  3.10D-02  1.08D-03
 -----------------------------------------------------------------------------

 *** DIIS iteration number    5
 RDSUPM called. NFMAT, ISYMDM(1:NFMAT)                     1
                     1

 ITDIIS, energy, error norm, change in energy, scr.thr., difden:
@ DIIS iter.   5    -360.749389364        2.57055D-02   -1.18D-03  -20    F

 (DIIS_RED) Control Parameters C2DIIS =         F NEVC =    5


 (DIIS_RED) B matrix:

               Column   1     Column   2     Column   3     Column   4     Column   5
       1      14.58330790
       2       0.55716128     1.04257550
       3       0.78617555    -0.00761530     0.15598484
       4       0.01994346     0.08980092    -0.00384208     0.01161764
       5       0.01515536     0.00700471     0.00517797     0.00119554     0.00066078
    ==== End of matrix output ====

 DIIS C vector; C2DIIS = F, LAMBDA = -4.28D-04
    0.001369    0.000320   -0.044567   -0.100407    1.143285
* Read MO coefficients from SIRIUS.RST with label "NEWORB  " and header info: 19Nov18  DIIS   5
      Virial theorem: -V/T =      2.002791
@      MULPOP N      -0.65; H       0.21; H       0.25; H       0.22; O      -0.69; O      -0.71; O      -0.66; O      -0.75; H       0.39; H       0.31; 
@             H       0.35; H       0.38; H       0.34; H       0.34; H       0.28; H       0.39; 

 DIIS Fock eigenvalues in symmetry 1
      -20.59199      -20.55608      -20.54087      -20.47080      -15.52924
       -1.35016       -1.32347       -1.31668       -1.24592       -1.14284
       -0.70038       -0.68932       -0.66065       -0.65488       -0.63611
       -0.62299       -0.58902       -0.57703       -0.57190       -0.53737
       -0.52556       -0.51065       -0.49769       -0.43070       -0.41083
        0.13194        0.16278        0.19643        0.21634        0.24293
        0.24818        0.28342        0.29231        0.32858        0.36483
        0.41317        0.46574        0.49248        0.54879        0.56833
        0.57528        0.57961        0.59278        0.60007        0.65121
        0.68196        0.71703        0.89943        0.94612        0.95548
        0.96854        0.98221        0.99366        1.03385        1.05413
        1.07792        1.09306        1.09392        1.12448        1.14377
        1.16598        1.19403        1.28959        1.33329        1.35024
        1.36300        1.39802        1.46056        1.47491        1.48950
        1.51019        1.53421        1.55883        1.56418        1.59873
        1.61192        1.67015        1.70325        1.71034        1.74264
        1.76287        1.81398        1.87449        1.88138        1.90705
        1.92710        1.97253        2.03451        2.08703        2.12503
        2.21786        2.23600        2.25198        2.28708        2.33025
        2.34538        2.38842        2.41576        2.50897        2.57056
        2.60269        2.64335        2.65994        2.69781        2.73076
        2.76059        2.82807        2.84192        2.86700        2.90146
        2.98921        3.00955        3.14737        3.22941        3.38834
        3.41627        3.43253        3.45503        3.49265        3.50833
        3.51119        3.51176        3.56165        3.57554        3.59289
        3.63926        3.68723        3.71286        3.92411        3.98029
        4.01217        4.02245        4.18453        4.19428        4.23990
        4.25737        4.76519        5.18967        5.28161        5.30274
        5.31617        5.37063        5.40737        5.71828        5.74690
        5.79352        5.82647        5.93740        6.06984        6.08665
        6.21384       37.05340       51.46587       51.50039       51.52088
       51.62554
 Time used in FCKEIG, thr_jaco:   2.77D-01  2.80D-02  1.12D-06
 CPU and wall times used in FCKEIG, THR_FCKEIG:   2.78D-01  2.80D-02  2.57D-04
 -----------------------------------------------------------------------------

 *** DIIS iteration number    6
 RDSUPM called. NFMAT, ISYMDM(1:NFMAT)                     1
                     1

 ITDIIS, energy, error norm, change in energy, scr.thr., difden:
@ DIIS iter.   6    -360.749485124        9.26167D-03   -9.58D-05  -20    F

 (DIIS_RED) Control Parameters C2DIIS =         F NEVC =    6


 (DIIS_RED) B matrix:

               Column   1     Column   2     Column   3     Column   4     Column   5     Column   6
       1      14.58330790
       2       0.55716128     1.04257550
       3       0.78617555    -0.00761530     0.15598484
       4       0.01994346     0.08980092    -0.00384208     0.01161764
       5       0.01515536     0.00700471     0.00517797     0.00119554     0.00066078
       6      -0.00197059    -0.00042397     0.00070964     0.00032741     0.00007086     0.00008578
    ==== End of matrix output ====

 DIIS C vector; C2DIIS = F, LAMBDA = -3.99D-05
    0.000605    0.008647   -0.015593   -0.115000    0.184586    0.936755
* Read MO coefficients from SIRIUS.RST with label "NEWORB  " and header info: 19Nov18  DIIS   6
      Virial theorem: -V/T =      2.002935
@      MULPOP N      -0.65; H       0.21; H       0.25; H       0.22; O      -0.69; O      -0.71; O      -0.66; O      -0.75; H       0.39; H       0.31; 
@             H       0.35; H       0.38; H       0.34; H       0.34; H       0.28; H       0.39; 

 DIIS Fock eigenvalues in symmetry 1
      -20.59315      -20.55614      -20.54067      -20.47299      -15.53327
       -1.35045       -1.32342       -1.31653       -1.24652       -1.14409
       -0.70074       -0.68949       -0.66070       -0.65576       -0.63699
       -0.62383       -0.58970       -0.57719       -0.57215       -0.53758
       -0.52629       -0.51042       -0.49729       -0.43114       -0.41190
        0.13178        0.16267        0.19633        0.21620        0.24281
        0.24805        0.28329        0.29221        0.32849        0.36462
        0.41299        0.46541        0.49211        0.54860        0.56792
        0.57503        0.57943        0.59262        0.59992        0.65094
        0.68185        0.71658        0.89886        0.94553        0.95535
        0.96817        0.98194        0.99359        1.03361        1.05387
        1.07768        1.09287        1.09373        1.12435        1.14370
        1.16562        1.19361        1.28926        1.33274        1.34974
        1.36298        1.39773        1.46042        1.47460        1.48917
        1.50999        1.53382        1.55850        1.56399        1.59854
        1.61158        1.66982        1.70284        1.71019        1.74241
        1.76256        1.81361        1.87417        1.88112        1.90669
        1.92651        1.97234        2.03403        2.08667        2.12467
        2.21765        2.23549        2.25161        2.28668        2.32981
        2.34514        2.38782        2.41561        2.50841        2.57020
        2.60224        2.64313        2.65970        2.69753        2.73041
        2.76026        2.82778        2.84159        2.86675        2.90101
        2.98809        3.00832        3.14666        3.22836        3.38760
        3.41616        3.43205        3.45368        3.49272        3.50837
        3.51071        3.51151        3.56057        3.57473        3.59247
        3.63918        3.68730        3.71215        3.92369        3.98036
        4.01191        4.02175        4.18448        4.19384        4.23903
        4.25745        4.76329        5.18768        5.27990        5.30189
        5.31620        5.37076        5.40622        5.71824        5.74699
        5.79277        5.82540        5.93674        6.06988        6.08656
        6.21266       37.04945       51.46472       51.50033       51.52106
       51.62339
 Time used in FCKEIG, thr_jaco:   2.46D-01  2.50D-02  4.05D-07
 CPU and wall times used in FCKEIG, THR_FCKEIG:   2.47D-01  2.50D-02  9.26D-05
 -----------------------------------------------------------------------------

 *** DIIS iteration number    7
 RDSUPM called. NFMAT, ISYMDM(1:NFMAT)                     1
                     1

 ITDIIS, energy, error norm, change in energy, scr.thr., difden:
@ DIIS iter.   7    -360.749494171        2.46256D-03   -9.05D-06  -20    F

 (DIIS_RED) Control Parameters C2DIIS =         F NEVC =    7


 (DIIS_RED) B matrix:

               Column   1     Column   2     Column   3     Column   4     Column   5     Column   6
       1      14.58330790
       2       0.55716128     1.04257550
       3       0.78617555    -0.00761530     0.15598484
       4       0.01994346     0.08980092    -0.00384208     0.01161764
       5       0.01515536     0.00700471     0.00517797     0.00119554     0.00066078
       6      -0.00197059    -0.00042397     0.00070964     0.00032741     0.00007086     0.00008578
       7       0.00056608    -0.00005361     0.00008613     0.00000304     0.00004139     0.00000123

               Column   7
       7       0.00000606
    ==== End of matrix output ====

 DIIS C vector; C2DIIS = F, LAMBDA = -1.42D-06
   -0.000232   -0.001320    0.006391    0.029401   -0.149258   -0.053742    1.168759
* Read MO coefficients from SIRIUS.RST with label "NEWORB  " and header info: 19Nov18  DIIS   7
      Virial theorem: -V/T =      2.002904
@      MULPOP N      -0.65; H       0.21; H       0.25; H       0.22; O      -0.69; O      -0.71; O      -0.66; O      -0.76; H       0.39; H       0.31; 
@             H       0.35; H       0.38; H       0.34; H       0.34; H       0.28; H       0.39; 

 DIIS Fock eigenvalues in symmetry 1
      -20.59292      -20.55619      -20.54079      -20.47244      -15.53265
       -1.35033       -1.32338       -1.31651       -1.24623       -1.14385
       -0.70066       -0.68950       -0.66070       -0.65569       -0.63683
       -0.62363       -0.58966       -0.57729       -0.57219       -0.53743
       -0.52612       -0.51035       -0.49722       -0.43083       -0.41165
        0.13180        0.16269        0.19635        0.21623        0.24284
        0.24810        0.28331        0.29223        0.32852        0.36468
        0.41308        0.46547        0.49220        0.54864        0.56803
        0.57508        0.57945        0.59265        0.59993        0.65102
        0.68186        0.71673        0.89900        0.94566        0.95544
        0.96828        0.98203        0.99358        1.03373        1.05402
        1.07775        1.09294        1.09381        1.12439        1.14373
        1.16568        1.19375        1.28936        1.33284        1.34985
        1.36302        1.39781        1.46044        1.47463        1.48918
        1.50997        1.53390        1.55861        1.56401        1.59854
        1.61169        1.66989        1.70295        1.71019        1.74243
        1.76267        1.81366        1.87424        1.88112        1.90672
        1.92663        1.97234        2.03414        2.08676        2.12470
        2.21765        2.23556        2.25164        2.28670        2.32989
        2.34514        2.38792        2.41560        2.50855        2.57021
        2.60231        2.64312        2.65970        2.69761        2.73046
        2.76029        2.82777        2.84158        2.86674        2.90114
        2.98830        3.00853        3.14684        3.22855        3.38775
        3.41619        3.43216        3.45390        3.49272        3.50838
        3.51093        3.51158        3.56079        3.57499        3.59258
        3.63920        3.68731        3.71243        3.92378        3.98035
        4.01199        4.02197        4.18451        4.19396        4.23931
        4.25746        4.76366        5.18800        5.28018        5.30208
        5.31621        5.37075        5.40658        5.71823        5.74696
        5.79295        5.82571        5.93687        6.06985        6.08656
        6.21301       37.05006       51.46496       51.50028       51.52095
       51.62393
 Time used in FCKEIG, thr_jaco:   2.44D-01  2.50D-02  1.08D-07
 CPU and wall times used in FCKEIG, THR_FCKEIG:   2.44D-01  2.50D-02  2.46D-05
 -----------------------------------------------------------------------------

 *** DIIS iteration number    8
 RDSUPM called. NFMAT, ISYMDM(1:NFMAT)                     1
                     1

 ITDIIS, energy, error norm, change in energy, scr.thr., difden:
@ DIIS iter.   8    -360.749494866        3.80607D-04   -6.95D-07  -20    F

 (DIIS_RED) Control Parameters C2DIIS =         F NEVC =    8


 (DIIS_RED) B matrix:

               Column   1     Column   2     Column   3     Column   4     Column   5     Column   6
       1      14.58330790
       2       0.55716128     1.04257550
       3       0.78617555    -0.00761530     0.15598484
       4       0.01994346     0.08980092    -0.00384208     0.01161764
       5       0.01515536     0.00700471     0.00517797     0.00119554     0.00066078
       6      -0.00197059    -0.00042397     0.00070964     0.00032741     0.00007086     0.00008578
       7       0.00056608    -0.00005361     0.00008613     0.00000304     0.00004139     0.00000123
       8       0.00006629    -0.00000443     0.00000046     0.00000246     0.00000102     0.00000151

               Column   7     Column   8
       7       0.00000606
       8       0.00000039     0.00000014
    ==== End of matrix output ====

 DIIS C vector; C2DIIS = F, LAMBDA = -8.67D-08
    0.000006   -0.000026   -0.000425   -0.001222    0.016668   -0.022821   -0.163399    1.171218
* Read MO coefficients from SIRIUS.RST with label "NEWORB  " and header info: 19Nov18  DIIS   8
      Virial theorem: -V/T =      2.002918
@      MULPOP N      -0.65; H       0.21; H       0.25; H       0.22; O      -0.69; O      -0.71; O      -0.66; O      -0.76; H       0.39; H       0.31; 
@             H       0.35; H       0.38; H       0.34; H       0.34; H       0.28; H       0.39; 

 DIIS Fock eigenvalues in symmetry 1
      -20.59298      -20.55614      -20.54072      -20.47245      -15.53267
       -1.35035       -1.32336       -1.31649       -1.24624       -1.14386
       -0.70067       -0.68948       -0.66068       -0.65571       -0.63684
       -0.62364       -0.58968       -0.57729       -0.57219       -0.53745
       -0.52613       -0.51033       -0.49719       -0.43083       -0.41167
        0.13179        0.16269        0.19635        0.21622        0.24284
        0.24810        0.28331        0.29223        0.32852        0.36467
        0.41307        0.46547        0.49219        0.54863        0.56801
        0.57507        0.57945        0.59265        0.59993        0.65103
        0.68186        0.71671        0.89899        0.94566        0.95543
        0.96827        0.98203        0.99358        1.03373        1.05402
        1.07775        1.09294        1.09381        1.12440        1.14374
        1.16566        1.19376        1.28936        1.33283        1.34984
        1.36303        1.39781        1.46043        1.47462        1.48917
        1.50997        1.53388        1.55860        1.56401        1.59854
        1.61168        1.66988        1.70294        1.71019        1.74243
        1.76266        1.81366        1.87423        1.88112        1.90671
        1.92662        1.97234        2.03413        2.08674        2.12469
        2.21765        2.23555        2.25164        2.28669        2.32988
        2.34514        2.38791        2.41560        2.50853        2.57019
        2.60230        2.64312        2.65969        2.69760        2.73045
        2.76028        2.82777        2.84157        2.86673        2.90112
        2.98828        3.00851        3.14682        3.22854        3.38773
        3.41620        3.43213        3.45389        3.49274        3.50839
[...]
 CCRED CVS/IONIS sigma_                   249 
 project out valence occupied or virtual
 CCRED CVS/IONIS sigma_                   250 
 project out valence occupied or virtual
 CCRED CVS/IONIS sigma_                   251 
 project out valence occupied or virtual
 CCRED CVS/IONIS sigma_                   252 
 project out valence occupied or virtual
 CCRED CVS/IONIS sigma_                   253 
 project out valence occupied or virtual
 CCRED CVS/IONIS sigma_                   254 
 project out valence occupied or virtual
 CCRED CVS/IONIS sigma_                   255 
 project out valence occupied or virtual

 REDUCED EIGENVALUES real part:

               Column   1
       1      14.81977334
       2      14.87941383
       3      14.90591368
       4      14.96740787
       5      14.98161333
       6      15.01152248
       7      15.01798090
       8      15.02470466
       9      15.07387138
      10      15.08701490
      11      15.10962954
      12      15.11528738
      13      15.13122917
      14      15.17208620
      15      15.27198777
    ==== End of matrix output ====
     17      15        75.86     0.37E-01
 CCRED CVS/IONIS sigma_                   256 
 project out valence occupied or virtual
 CCRED CVS/IONIS sigma_                   257 
 project out valence occupied or virtual
 CCRED CVS/IONIS sigma_                   258 
 project out valence occupied or virtual
 CCRED CVS/IONIS sigma_                   259 
 project out valence occupied or virtual
 CCRED CVS/IONIS sigma_                   260 
 project out valence occupied or virtual
 CCRED CVS/IONIS sigma_                   261 
 project out valence occupied or virtual
 CCRED CVS/IONIS sigma_                   262 
 project out valence occupied or virtual
 CCRED CVS/IONIS sigma_                   263 
 project out valence occupied or virtual
 CCRED CVS/IONIS sigma_                   264 
 project out valence occupied or virtual
 CCRED CVS/IONIS sigma_                   265 
 project out valence occupied or virtual
 CCRED CVS/IONIS sigma_                   266 
 project out valence occupied or virtual
 CCRED CVS/IONIS sigma_                   267 
 project out valence occupied or virtual
 CCRED CVS/IONIS sigma_                   268 
 project out valence occupied or virtual
 CCRED CVS/IONIS sigma_                   269 
 project out valence occupied or virtual
 CCRED CVS/IONIS sigma_                   270 
 project out valence occupied or virtual

 REDUCED EIGENVALUES real part:

               Column   1
       1      14.81976265
       2      14.87940690
       3      14.90591215
       4      14.96741058
       5      14.98162356
       6      15.01153128
       7      15.01799866
       8      15.02471202
       9      15.07389913
      10      15.08702808
      11      15.10968326
      12      15.11531765
      13      15.13127831
      14      15.17228800
      15      15.27222223
    ==== End of matrix output ====
     18      15        88.31     0.26E-01
 CCRED CVS/IONIS sigma_                   271 
 project out valence occupied or virtual
 CCRED CVS/IONIS sigma_                   272 
 project out valence occupied or virtual
 CCRED CVS/IONIS sigma_                   273 
 project out valence occupied or virtual
 CCRED CVS/IONIS sigma_                   274 
 project out valence occupied or virtual
 CCRED CVS/IONIS sigma_                   275 
 project out valence occupied or virtual
 CCRED CVS/IONIS sigma_                   276 
 project out valence occupied or virtual
 CCRED CVS/IONIS sigma_                   277 
 project out valence occupied or virtual
 CCRED CVS/IONIS sigma_                   278 
 project out valence occupied or virtual
 CCRED CVS/IONIS sigma_                   279 
 project out valence occupied or virtual
 CCRED CVS/IONIS sigma_                   280 
 project out valence occupied or virtual
 CCRED CVS/IONIS sigma_                   281 
 project out valence occupied or virtual
 CCRED CVS/IONIS sigma_                   282 
 project out valence occupied or virtual
 CCRED CVS/IONIS sigma_                   283 
 project out valence occupied or virtual
 CCRED CVS/IONIS sigma_                   284 
 project out valence occupied or virtual
 CCRED CVS/IONIS sigma_                   285 
 project out valence occupied or virtual

 REDUCED EIGENVALUES real part:

               Column   1
       1      14.81975814
       2      14.87940576
       3      14.90591629
       4      14.96741612
       5      14.98163464
       6      15.01154026
       7      15.01801558
       8      15.02471990
       9      15.07392890
      10      15.08704266
      11      15.10972537
      12      15.11534618
      13      15.13131390
      14      15.17242475
      15      15.27234905
    ==== End of matrix output ====
     19      15        69.46     0.19E-01
 CCRED CVS/IONIS sigma_                   286 
 project out valence occupied or virtual
 CCRED CVS/IONIS sigma_                   287 
 project out valence occupied or virtual
 CCRED CVS/IONIS sigma_                   288 
 project out valence occupied or virtual
 CCRED CVS/IONIS sigma_                   289 
 project out valence occupied or virtual
 CCRED CVS/IONIS sigma_                   290 
 project out valence occupied or virtual
 CCRED CVS/IONIS sigma_                   291 
 project out valence occupied or virtual
 CCRED CVS/IONIS sigma_                   292 
 project out valence occupied or virtual
 CCRED CVS/IONIS sigma_                   293 
 project out valence occupied or virtual
 CCRED CVS/IONIS sigma_                   294 
 project out valence occupied or virtual
 CCRED CVS/IONIS sigma_                   295 
 project out valence occupied or virtual
 CCRED CVS/IONIS sigma_                   296 
 project out valence occupied or virtual
 CCRED CVS/IONIS sigma_                   297 
 project out valence occupied or virtual
 CCRED CVS/IONIS sigma_                   298 
 project out valence occupied or virtual
 CCRED CVS/IONIS sigma_                   299 
 project out valence occupied or virtual
 CCRED CVS/IONIS sigma_                   300 
 project out valence occupied or virtual

 REDUCED EIGENVALUES real part:

               Column   1
       1      14.81975645
       2      14.87940584
       3      14.90591932
       4      14.96742052
       5      14.98164289
       6      15.01154730
       7      15.01802662
       8      15.02472531
       9      15.07394462
      10      15.08705236
      11      15.10975269
      12      15.11536150
      13      15.13133604
      14      15.17244642
      15      15.27232661
    ==== End of matrix output ====
     20      15        76.63     0.12E-01
 CCRED CVS/IONIS sigma_                   301 
 project out valence occupied or virtual
 CCRED CVS/IONIS sigma_                   302 
 project out valence occupied or virtual
 CCRED CVS/IONIS sigma_                   303 
 project out valence occupied or virtual
 CCRED CVS/IONIS sigma_                   304 
 project out valence occupied or virtual
 CCRED CVS/IONIS sigma_                   305 
 project out valence occupied or virtual
 CCRED CVS/IONIS sigma_                   306 
 project out valence occupied or virtual
 CCRED CVS/IONIS sigma_                   307 
 project out valence occupied or virtual
 CCRED CVS/IONIS sigma_                   308 
 project out valence occupied or virtual
 CCRED CVS/IONIS sigma_                   309 
 project out valence occupied or virtual
 CCRED CVS/IONIS sigma_                   310 
 project out valence occupied or virtual
 CCRED CVS/IONIS sigma_                   311 
 project out valence occupied or virtual
 CCRED CVS/IONIS sigma_                   312 
 project out valence occupied or virtual
 CCRED CVS/IONIS sigma_                   313 
 project out valence occupied or virtual
 CCRED CVS/IONIS sigma_                   314 
 project out valence occupied or virtual
 CCRED CVS/IONIS sigma_                   315 
 project out valence occupied or virtual

 REDUCED EIGENVALUES real part:

               Column   1
       1      14.81975608
       2      14.87940641
       3      14.90592150
       4      14.96742425
       5      14.98164922
       6      15.01155163
       7      15.01803307
       8      15.02472913
       9      15.07395404
      10      15.08705818
      11      15.10976585
      12      15.11537037
      13      15.13134563
      14      15.17243842
      15      15.27225598
    ==== End of matrix output ====
     21      15        71.70     0.88E-02
 CCRED CVS/IONIS sigma_                   316 
 project out valence occupied or virtual
 CCRED CVS/IONIS sigma_                   317 
 project out valence occupied or virtual
 CCRED CVS/IONIS sigma_                   318 
 project out valence occupied or virtual
 CCRED CVS/IONIS sigma_                   319 
 project out valence occupied or virtual
 CCRED CVS/IONIS sigma_                   320 
 project out valence occupied or virtual
 CCRED CVS/IONIS sigma_                   321 
 project out valence occupied or virtual
 CCRED CVS/IONIS sigma_                   322 
 project out valence occupied or virtual
 CCRED CVS/IONIS sigma_                   323 
 project out valence occupied or virtual
 CCRED CVS/IONIS sigma_                   324 
 project out valence occupied or virtual
 CCRED CVS/IONIS sigma_                   325 
 project out valence occupied or virtual
 CCRED CVS/IONIS sigma_                   326 
 project out valence occupied or virtual
 CCRED CVS/IONIS sigma_                   327 
 project out valence occupied or virtual
 CCRED CVS/IONIS sigma_                   328 
 project out valence occupied or virtual
 CCRED CVS/IONIS sigma_                   329 
 project out valence occupied or virtual
 CCRED CVS/IONIS sigma_                   330 
 project out valence occupied or virtual

 REDUCED EIGENVALUES real part:

               Column   1
       1      14.81975615
       2      14.87940690
       3      14.90592265
       4      14.96742620
       5      14.98165217
       6      15.01155363
       7      15.01803558
       8      15.02473098
       9      15.07395696
      10      15.08706071
      11      15.10976968
      12      15.11537372
      13      15.13134827
      14      15.17242570
      15      15.27219997
    ==== End of matrix output ====
     22      15        65.26     0.67E-02
 CCRED CVS/IONIS sigma_                   331 
 project out valence occupied or virtual
 CCRED CVS/IONIS sigma_                   332 
 project out valence occupied or virtual
 CCRED CVS/IONIS sigma_                   333 
 project out valence occupied or virtual
 CCRED CVS/IONIS sigma_                   334 
 project out valence occupied or virtual
 CCRED CVS/IONIS sigma_                   335 
 project out valence occupied or virtual
 CCRED CVS/IONIS sigma_                   336 
 project out valence occupied or virtual
 CCRED CVS/IONIS sigma_                   337 
 project out valence occupied or virtual
 CCRED CVS/IONIS sigma_                   338 
 project out valence occupied or virtual
 CCRED CVS/IONIS sigma_                   339 
 project out valence occupied or virtual
 CCRED CVS/IONIS sigma_                   340 
 project out valence occupied or virtual
 CCRED CVS/IONIS sigma_                   341 
 project out valence occupied or virtual
 CCRED CVS/IONIS sigma_                   342 
 project out valence occupied or virtual
 CCRED CVS/IONIS sigma_                   343 
 project out valence occupied or virtual

 REDUCED EIGENVALUES real part:

               Column   1
       1      14.81975644
       2      14.87940687
       3      14.90592323
       4      14.96742744
       5      14.98165368
       6      15.01155452
       7      15.01803642
       8      15.02473158
       9      15.07395814
      10      15.08706166
      11      15.10976931
      12      15.11537469
      13      15.13134748
      14      15.17241174
      15      15.27215978
    ==== End of matrix output ====
     23      13        60.38     0.40E-02
 CCRED CVS/IONIS sigma_                   344 
 project out valence occupied or virtual
 CCRED CVS/IONIS sigma_                   345 
 project out valence occupied or virtual
 CCRED CVS/IONIS sigma_                   346 
 project out valence occupied or virtual
 CCRED CVS/IONIS sigma_                   347 
 project out valence occupied or virtual
 CCRED CVS/IONIS sigma_                   348 
 project out valence occupied or virtual
 CCRED CVS/IONIS sigma_                   349 
 project out valence occupied or virtual
 CCRED CVS/IONIS sigma_                   350 
 project out valence occupied or virtual
 CCRED CVS/IONIS sigma_                   351 
 project out valence occupied or virtual
 CCRED CVS/IONIS sigma_                   352 
 project out valence occupied or virtual
 CCRED CVS/IONIS sigma_                   353 
 project out valence occupied or virtual
 CCRED CVS/IONIS sigma_                   354 
 project out valence occupied or virtual

 REDUCED EIGENVALUES real part:

               Column   1
       1      14.81975667
       2      14.87940687
       3      14.90592326
       4      14.96742750
       5      14.98165384
       6      15.01155471
       7      15.01803599
       8      15.02473167
       9      15.07395780
      10      15.08706173
      11      15.10976721
      12      15.11537399
      13      15.13134577
      14      15.17240464
      15      15.27214716
    ==== End of matrix output ====
     24      11        52.34     0.28E-02
 CCRED CVS/IONIS sigma_                   355 
 project out valence occupied or virtual
 CCRED CVS/IONIS sigma_                   356 
 project out valence occupied or virtual
 CCRED CVS/IONIS sigma_                   357 
 project out valence occupied or virtual
 CCRED CVS/IONIS sigma_                   358 
 project out valence occupied or virtual
 CCRED CVS/IONIS sigma_                   359 
 project out valence occupied or virtual
 CCRED CVS/IONIS sigma_                   360 
 project out valence occupied or virtual
 CCRED CVS/IONIS sigma_                   361 
 project out valence occupied or virtual
 CCRED CVS/IONIS sigma_                   362 
 project out valence occupied or virtual
 CCRED CVS/IONIS sigma_                   363 
 project out valence occupied or virtual

 REDUCED EIGENVALUES real part:

               Column   1
       1      14.81975686
       2      14.87940686
       3      14.90592327
       4      14.96742743
       5      14.98165356
       6      15.01155461
       7      15.01803537
       8      15.02473161
       9      15.07395684
      10      15.08706130
      11      15.10976507
      12      15.11537298
      13      15.13134413
      14      15.17239979
      15      15.27214612
    ==== End of matrix output ====
     25       9        42.65     0.19E-02
 CCRED CVS/IONIS sigma_                   364 
 project out valence occupied or virtual
 CCRED CVS/IONIS sigma_                   365 
 project out valence occupied or virtual
 CCRED CVS/IONIS sigma_                   366 
 project out valence occupied or virtual
 CCRED CVS/IONIS sigma_                   367 
 project out valence occupied or virtual
 CCRED CVS/IONIS sigma_                   368 
 project out valence occupied or virtual
 CCRED CVS/IONIS sigma_                   369 
 project out valence occupied or virtual

 REDUCED EIGENVALUES real part:

               Column   1
       1      14.81975694
       2      14.87940688
       3      14.90592324
       4      14.96742736
       5      14.98165340
       6      15.01155461
       7      15.01803503
       8      15.02473148
       9      15.07395569
      10      15.08706107
      11      15.10976325
      12      15.11537168
      13      15.13134273
      14      15.17239622
      15      15.27214980
    ==== End of matrix output ====
     26       6        29.21     0.14E-02
 CCRED CVS/IONIS sigma_                   370 
 project out valence occupied or virtual
 CCRED CVS/IONIS sigma_                   371 
 project out valence occupied or virtual
 CCRED CVS/IONIS sigma_                   372 
 project out valence occupied or virtual
 CCRED CVS/IONIS sigma_                   373 
 project out valence occupied or virtual
 CCRED CVS/IONIS sigma_                   374 
 project out valence occupied or virtual
 CCRED CVS/IONIS sigma_                   375 
 project out valence occupied or virtual

 REDUCED EIGENVALUES real part:

               Column   1
       1      14.81975698
       2      14.87940688
       3      14.90592323
       4      14.96742733
       5      14.98165330
       6      15.01155458
       7      15.01803484
       8      15.02473137
       9      15.07395485
      10      15.08706089
      11      15.10976222
      12      15.11537067
      13      15.13134180
      14      15.17239429
      15      15.27215294
    ==== End of matrix output ====
     27       6        29.43     0.88E-03
 CCRED CVS/IONIS sigma_                   376 
 project out valence occupied or virtual
 CCRED CVS/IONIS sigma_                   377 
 project out valence occupied or virtual

 REDUCED EIGENVALUES real part:

               Column   1
       1      14.81975698
       2      14.87940688
       3      14.90592319
       4      14.96742731
       5      14.98165330
       6      15.01155454
       7      15.01803482
       8      15.02473134
       9      15.07395457
      10      15.08706080
      11      15.10976215
      12      15.11537057
      13      15.13134171
      14      15.17239230
      15      15.27215355
    ==== End of matrix output ====
     28       2        12.54     0.66E-03
 CCRED CVS/IONIS sigma_                   378 
 project out valence occupied or virtual
 CCRED CVS/IONIS sigma_                   379 
 project out valence occupied or virtual

 REDUCED EIGENVALUES real part:

               Column   1
       1      14.81975698
       2      14.87940688
       3      14.90592318
       4      14.96742731
       5      14.98165329
       6      15.01155453
       7      15.01803482
       8      15.02473132
       9      15.07395444
      10      15.08706078
      11      15.10976210
      12      15.11537052
      13      15.13134172
      14      15.17239121
      15      15.27215264
    ==== End of matrix output ====
     29       2        13.80     0.48E-03
 CCRED CVS/IONIS sigma_                   380 
 project out valence occupied or virtual
 CCRED CVS/IONIS sigma_                   381 
 project out valence occupied or virtual

 REDUCED EIGENVALUES real part:

               Column   1
       1      14.81975697
       2      14.87940688
       3      14.90592317
       4      14.96742731
       5      14.98165329
       6      15.01155453
       7      15.01803482
       8      15.02473131
       9      15.07395440
      10      15.08706079
      11      15.10976205
      12      15.11537052
      13      15.13134173
      14      15.17239128
      15      15.27215155
    ==== End of matrix output ====
     30       2        13.49     0.35E-03
 CCRED CVS/IONIS sigma_                   382 
 project out valence occupied or virtual
 CCRED CVS/IONIS sigma_                   383 
 project out valence occupied or virtual

 REDUCED EIGENVALUES real part:

               Column   1
       1      14.81975697
       2      14.87940688
       3      14.90592317
       4      14.96742731
       5      14.98165328
       6      15.01155454
       7      15.01803482
       8      15.02473131
       9      15.07395441
      10      15.08706081
      11      15.10976203
      12      15.11537052
      13      15.13134174
      14      15.17239214
      15      15.27215127
    ==== End of matrix output ====
     31       2        13.09     0.25E-03
 CCRED CVS/IONIS sigma_                   384 
 project out valence occupied or virtual
 CCRED CVS/IONIS sigma_                   385 
 project out valence occupied or virtual
