

     ************************************************************************
     *************** Dalton - An Electronic Structure Program ***************
     ************************************************************************

    This is output from DALTON release Dalton2017.alpha (2016)
         ( Web site: http://daltonprogram.org )

   ----------------------------------------------------------------------------

    NOTE:
     
    Dalton is an experimental code for the evaluation of molecular
    properties using (MC)SCF, DFT, CI, and CC wave functions.
    The authors accept no responsibility for the performance of
    the code or for the correctness of the results.
     
    The code (in whole or part) is provided under a licence and
    is not to be reproduced for further distribution without
    the written permission of the authors or their representatives.
     
    See the home page "http://daltonprogram.org" for further information.
     
    If results obtained with this code are published,
    the appropriate citations would be both of:
     
       K. Aidas, C. Angeli, K. L. Bak, V. Bakken, R. Bast,
       L. Boman, O. Christiansen, R. Cimiraglia, S. Coriani,
       P. Dahle, E. K. Dalskov, U. Ekstroem,
       T. Enevoldsen, J. J. Eriksen, P. Ettenhuber, B. Fernandez,
       L. Ferrighi, H. Fliegl, L. Frediani, K. Hald, A. Halkier,
       C. Haettig, H. Heiberg, T. Helgaker, A. C. Hennum,
       H. Hettema, E. Hjertenaes, S. Hoest, I.-M. Hoeyvik,
       M. F. Iozzi, B. Jansik, H. J. Aa. Jensen, D. Jonsson,
       P. Joergensen, J. Kauczor, S. Kirpekar,
       T. Kjaergaard, W. Klopper, S. Knecht, R. Kobayashi, H. Koch,
       J. Kongsted, A. Krapp, K. Kristensen, A. Ligabue,
       O. B. Lutnaes, J. I. Melo, K. V. Mikkelsen, R. H. Myhre,
       C. Neiss, C. B. Nielsen, P. Norman, J. Olsen,
       J. M. H. Olsen, A. Osted, M. J. Packer, F. Pawlowski,
       T. B. Pedersen, P. F. Provasi, S. Reine, Z. Rinkevicius,
       T. A. Ruden, K. Ruud, V. Rybkin, P. Salek, C. C. M. Samson,
       A. Sanchez de Meras, T. Saue, S. P. A. Sauer,
       B. Schimmelpfennig, K. Sneskov, A. H. Steindal,
       K. O. Sylvester-Hvid, P. R. Taylor, A. M. Teale,
       E. I. Tellgren, D. P. Tew, A. J. Thorvaldsen, L. Thoegersen,
       O. Vahtras, M. A. Watson, D. J. D. Wilson, M. Ziolkowski
       and H. Agren,
       "The Dalton quantum chemistry program system",
       WIREs Comput. Mol. Sci. 2014, 4:269–284 (doi: 10.1002/wcms.1172)
     
    and
     
       Dalton, a Molecular Electronic Structure Program,
       Release Dalton2017.alpha (2016), see http://daltonprogram.org
   ----------------------------------------------------------------------------

    Authors in alphabetical order (major contribution(s) in parenthesis):

  Kestutis Aidas,           Vilnius University,           Lithuania   (QM/MM)
  Celestino Angeli,         University of Ferrara,        Italy       (NEVPT2)
  Keld L. Bak,              UNI-C,                        Denmark     (AOSOPPA, non-adiabatic coupling, magnetic properties)
  Vebjoern Bakken,          University of Oslo,           Norway      (DALTON; geometry optimizer, symmetry detection)
  Radovan Bast,             UiT The Arctic U. of Norway,  Norway      (DALTON installation and execution frameworks)
  Pablo Baudin,             University of Valencia,       Spain       (Cholesky excitation energies)
  Linus Boman,              NTNU,                         Norway      (Cholesky decomposition and subsystems)
  Ove Christiansen,         Aarhus University,            Denmark     (CC module)
  Renzo Cimiraglia,         University of Ferrara,        Italy       (NEVPT2)
  Sonia Coriani,            University of Trieste,        Italy       (CC module, MCD in RESPONS)
  Janusz Cukras,            University of Trieste,        Italy       (MChD in RESPONS)
  Paal Dahle,               University of Oslo,           Norway      (Parallelization)
  Erik K. Dalskov,          UNI-C,                        Denmark     (SOPPA)
  Thomas Enevoldsen,        Univ. of Southern Denmark,    Denmark     (SOPPA)
  Janus J. Eriksen,         Aarhus University,            Denmark     (Polarizable embedding model, TDA)
  Rasmus Faber,             University of Copenhagen,     Denmark     (Vib.avg. NMR with SOPPA, parallel AO-SOPPA)
  Berta Fernandez,          U. of Santiago de Compostela, Spain       (doublet spin, ESR in RESPONS)
  Lara Ferrighi,            Aarhus University,            Denmark     (PCM Cubic response)
  Heike Fliegl,             University of Oslo,           Norway      (CCSD(R12))
  Luca Frediani,            UiT The Arctic U. of Norway,  Norway      (PCM)
  Bin Gao,                  UiT The Arctic U. of Norway,  Norway      (Gen1Int library)
  Christof Haettig,         Ruhr-University Bochum,       Germany     (CC module)
  Kasper Hald,              Aarhus University,            Denmark     (CC module)
  Asger Halkier,            Aarhus University,            Denmark     (CC module)
  Frederik Beyer Hansen,    University of Copenhagen,     Denmark     (Parallel AO-SOPPA)
  Erik D. Hedegaard,        Univ. of Southern Denmark,    Denmark     (Polarizable embedding model, QM/MM)
  Hanne Heiberg,            University of Oslo,           Norway      (geometry analysis, selected one-electron integrals)
  Trygve Helgaker,          University of Oslo,           Norway      (DALTON; ABACUS, ERI, DFT modules, London, and much more)
  Alf Christian Hennum,     University of Oslo,           Norway      (Parity violation)
  Hinne Hettema,            University of Auckland,       New Zealand (quadratic response in RESPONS; SIRIUS supersymmetry)
  Eirik Hjertenaes,         NTNU,                         Norway      (Cholesky decomposition)
  Pi A. B. Haase,           University of Copenhagen,     Denmark     (Triplet AO-SOPPA)
  Maria Francesca Iozzi,    University of Oslo,           Norway      (RPA)
  Brano Jansik              Technical Univ. of Ostrava    Czech Rep.  (DFT cubic response)
  Hans Joergen Aa. Jensen,  Univ. of Southern Denmark,    Denmark     (DALTON; SIRIUS, RESPONS, ABACUS modules, London, and much more)
  Dan Jonsson,              UiT The Arctic U. of Norway,  Norway      (cubic response in RESPONS module)
  Poul Joergensen,          Aarhus University,            Denmark     (RESPONS, ABACUS, and CC modules)
  Maciej Kaminski,          University of Warsaw,         Poland      (CPPh in RESPONS)
  Joanna Kauczor,           Linkoeping University,        Sweden      (Complex polarization propagator (CPP) module)
  Sheela Kirpekar,          Univ. of Southern Denmark,    Denmark     (Mass-velocity & Darwin integrals)
  Wim Klopper,              KIT Karlsruhe,                Germany     (R12 code in CC, SIRIUS, and ABACUS modules)
  Stefan Knecht,            ETH Zurich,                   Switzerland (Parallel CI and MCSCF)
  Rika Kobayashi,           Australian National Univ.,    Australia   (DIIS in CC, London in MCSCF)
  Henrik Koch,              NTNU,                         Norway      (CC module, Cholesky decomposition)
  Jacob Kongsted,           Univ. of Southern Denmark,    Denmark     (Polarizable embedding model, QM/MM)
  Andrea Ligabue,           University of Modena,         Italy       (CTOCD, AOSOPPA)
  Nanna H. List             Univ. of Southern Denmark,    Denmark     (Polarizable embedding model)
  Ola B. Lutnaes,           University of Oslo,           Norway      (DFT Hessian)
  Juan I. Melo,             University of Buenos Aires,   Argentina   (LRESC, Relativistic Effects on NMR Shieldings)
  Kurt V. Mikkelsen,        University of Copenhagen,     Denmark     (MC-SCRF and QM/MM)
  Rolf H. Myhre,            NTNU,                         Norway      (Cholesky, subsystems and ECC2)
  Christian Neiss,          Univ. Erlangen-Nuernberg,     Germany     (CCSD(R12))
  Christian B. Nielsen,     University of Copenhagen,     Denmark     (QM/MM)
  Patrick Norman,           Linkoeping University,        Sweden      (Cubic response and complex frequency response in RESPONS)
  Jeppe Olsen,              Aarhus University,            Denmark     (SIRIUS CI/density modules)
  Jogvan Magnus H. Olsen,   Univ. of Southern Denmark,    Denmark     (Polarizable embedding model, QM/MM)
  Anders Osted,             Copenhagen University,        Denmark     (QM/MM)
  Martin J. Packer,         University of Sheffield,      UK          (SOPPA)
  Filip Pawlowski,          Kazimierz Wielki University,  Poland      (CC3)
  Morten N. Pedersen,       Univ. of Southern Denmark,    Denmark     (Polarizable embedding model)
  Thomas B. Pedersen,       University of Oslo,           Norway      (Cholesky decomposition)
  Patricio F. Provasi,      University of Northeastern,   Argentina   (Analysis of coupling constants in localized orbitals)
  Zilvinas Rinkevicius,     KTH Stockholm,                Sweden      (open-shell DFT, ESR)
  Elias Rudberg,            KTH Stockholm,                Sweden      (DFT grid and basis info)
  Torgeir A. Ruden,         University of Oslo,           Norway      (Numerical derivatives in ABACUS)
  Kenneth Ruud,             UiT The Arctic U. of Norway,  Norway      (DALTON; ABACUS magnetic properties and much more)
  Pawel Salek,              KTH Stockholm,                Sweden      (DALTON; DFT code)
  Claire C. M. Samson       University of Karlsruhe       Germany     (Boys localization, r12 integrals in ERI)
  Alfredo Sanchez de Meras, University of Valencia,       Spain       (CC module, Cholesky decomposition)
  Trond Saue,               Paul Sabatier University,     France      (direct Fock matrix construction)
  Stephan P. A. Sauer,      University of Copenhagen,     Denmark     (SOPPA(CCSD), SOPPA prop., AOSOPPA, vibrational g-factors)
  Bernd Schimmelpfennig,    Forschungszentrum Karlsruhe,  Germany     (AMFI module)
  Kristian Sneskov,         Aarhus University,            Denmark     (Polarizable embedding model, QM/MM)
  Arnfinn H. Steindal,      UiT The Arctic U. of Norway,  Norway      (parallel QM/MM, Polarizable embedding model)
  Casper Steinmann,         Univ. of Southern Denmark,    Denmark     (QFIT, Polarizable embedding model)
  K. O. Sylvester-Hvid,     University of Copenhagen,     Denmark     (MC-SCRF)
  Peter R. Taylor,          VLSCI/Univ. of Melbourne,     Australia   (Symmetry handling ABACUS, integral transformation)
  Andrew M. Teale,          University of Nottingham,     England     (DFT-AC, DFT-D)
  David P. Tew,             University of Bristol,        England     (CCSD(R12))
  Olav Vahtras,             KTH Stockholm,                Sweden      (triplet response, spin-orbit, ESR, TDDFT, open-shell DFT)
  David J. Wilson,          La Trobe University,          Australia   (DFT Hessian and DFT magnetizabilities)
  Hans Agren,               KTH Stockholm,                Sweden      (SIRIUS module, RESPONS, MC-SCRF solvation model)
 --------------------------------------------------------------------------------

     Date and time (Linux)  : Sun Dec 30 01:02:57 2018
     Host name              : n-62-23-14                              

 * Work memory size             :  1280000000 =  9.537 gigabytes.

 * Directories for basis set searches:
   1) /zhome/37/3/129401/NH3NH4/CCSD/AIMD_SAMPLING/nh3_4h2o_nd
   2) /zhome/9a/4/124800/source/dalton/build-mlcc/basis


Compilation information
-----------------------

 Who compiled             | rfaber
 Host                     | hpclogin1
 System                   | Linux-2.6.32-696.1.1.el6.x86_64
 CMake generator          | Unix Makefiles
 Processor                | x86_64
 64-bit integers          | ON
 MPI                      | OFF
 Fortran compiler         | /opt/intel/2016update2/compilers_and_libraries_201
                          | 6.2.181/linux/bin/intel64/ifort
 Fortran compiler version | ifort (IFORT) 16.0.2 20160204
 C compiler               | /opt/intel/2016update2/compilers_and_libraries_201
                          | 6.2.181/linux/bin/intel64/icc
 C compiler version       | icc (ICC) 16.0.2 20160204
 C++ compiler             | /opt/intel/2016update2/compilers_and_libraries_201
                          | 6.2.181/linux/bin/intel64/icpc
 C++ compiler version     | icpc (ICC) 16.0.2 20160204
 Static linking           | OFF
 Last Git revision        | bb4d1599ca5680a9f3980451fc8bbefdba436d59
 Git branch               | mlcc
 Configuration time       | 2017-06-13 16:11:03.928841


   Content of the .dal input file
 ----------------------------------

**DALTON
.RUN WAVE FUNCTIONS
*QMMM
.QMMM
**INTEGRALS
.DIPLEN
**WAVE FUNCTIONS
.CC
*PRINT
!To check the origin of excit
.PRINTL
   0 11
*SCF INP
.THRESH
1.0D-7
*CC INP
.CCSD
.THRLEQ
 1.0D-9
.THRENR
 1.0D-10
.FROIMP
4
0
.PRINT
 1
.MAX IT
 1200
.MAXRED
 1200
.MXLRV
1199
*CCSLV
.CCMM
.MXSLIT
200
.MXINIT
4 5
*CCEXCI
.NCCEXC
 15
.CVSEPARA
1
1
*CCLRSD
.DIPOLE
**END OF DALTON INPUT


   Content of the .mol file
 ----------------------------

ATOMBASIS


Atomtypes=4 Charge=0 Nosymm Angstrom
   7.00000    1    Basis=6-311G**
N          0.000000        0.000000        0.000000
   1.00000    3    Basis=6-311G**
H         -0.966807       -0.378622       -0.104337
H          0.497209       -0.647324        0.555020
H         -0.092931        0.828259        0.541273
   8.00000    4    Basis=6-311G**
O          2.526819        0.531435        1.813095
O          0.165991        0.905539       -2.764903
O          0.070581        3.036644        0.268834
O         -3.880359       -0.414019        0.782461
   1.00000    8    Basis=6-311G**
H          2.053228        1.237669        2.173875
H          3.482466        0.716016        2.146318
H          0.666459        0.345284       -3.421885
H          0.352491        0.501107       -1.847305
H         -0.250808        3.238646        1.204291
H         -0.517042        3.621585       -0.279842
H         -4.342947        0.363512        0.298407
H         -4.696125       -0.864336        0.983893


       *******************************************************************
       *********** Output from DALTON general input processing ***********
       *******************************************************************

 --------------------------------------------------------------------------------
   Overall default print level:    0
   Print level for DALTON.STAT:    1

    HERMIT 1- and 2-electron integral sections will be executed
    "Old" integral transformation used (limited to max 255 basis functions)
    Wave function sections will be executed (SIRIUS module)
 --------------------------------------------------------------------------------


 Changes of defaults for *QMMM  :
 --------------------------------

 +------------------+
 |  WORD: | CHANGE: |
 +------------------+
 |   QMMM |       T |
 +------------------+
 


   ****************************************************************************
   *************** Output of molecule and basis set information ***************
   ****************************************************************************


    The two title cards from your ".mol" input:
    ------------------------------------------------------------------------
 1:                                                                         
 2:                                                                         
    ------------------------------------------------------------------------

  Coordinates are entered in Angstrom and converted to atomic units.
          - Conversion factor : 1 bohr = 0.52917721 A

  Atomic type no.    1
  --------------------
  Nuclear charge:   7.00000
  Number of symmetry independent centers:    1
  Number of basis sets to read;    2
  The basis set is "6-311G**" from the basis set library.
  Basis set file used for this atomic type with Z =   7 :
     "/zhome/9a/4/124800/source/dalton/build-mlcc/basis/6-311G**"

  Info about the basis set file: your basis has no documentation.
  Basis set: 6-311G**                                                                        

  Atomic type no.    2
  --------------------
  Nuclear charge:   1.00000
  Number of symmetry independent centers:    3
  Number of basis sets to read;    2
  The basis set is "6-311G**" from the basis set library.
  Basis set file used for this atomic type with Z =   1 :
     "/zhome/9a/4/124800/source/dalton/build-mlcc/basis/6-311G**"

  Info about the basis set file: your basis has no documentation.
  Basis set: 6-311G**                                                                        

  Atomic type no.    3
  --------------------
  Nuclear charge:   8.00000
  Number of symmetry independent centers:    4
  Number of basis sets to read;    2
  The basis set is "6-311G**" from the basis set library.
  Basis set file used for this atomic type with Z =   8 :
     "/zhome/9a/4/124800/source/dalton/build-mlcc/basis/6-311G**"

  Info about the basis set file: your basis has no documentation.
  Basis set: 6-311G**                                                                        

  Atomic type no.    4
  --------------------
  Nuclear charge:   1.00000
  Number of symmetry independent centers:    8
  Number of basis sets to read;    2
  The basis set is "6-311G**" from the basis set library.
  Basis set file used for this atomic type with Z =   1 :
     "/zhome/9a/4/124800/source/dalton/build-mlcc/basis/6-311G**"

  Info about the basis set file: your basis has no documentation.
  Basis set: 6-311G**                                                                        


                         SYMGRP: Point group information
                         -------------------------------

@    Point group: C1 


                                 Isotopic Masses
                                 ---------------

                           N          14.003074
                           H           1.007825
                           H           1.007825
                           H           1.007825
                           O          15.994915
                           O          15.994915
                           O          15.994915
                           O          15.994915
                           H           1.007825
                           H           1.007825
                           H           1.007825
                           H           1.007825
                           H           1.007825
                           H           1.007825
                           H           1.007825
                           H           1.007825

                       Total mass:    89.068809 amu
                       Natural abundance:  98.514 %

 Center-of-mass coordinates (a.u.):   -0.460620    1.569274    0.081866


  Atoms and basis sets
  --------------------

  Number of atom types :    4
  Total number of atoms:   16

  label    atoms   charge   prim   cont     basis
  ----------------------------------------------------------------------
  N           1    7.0000    31    18      [11s5p1d|4s3p1d]                                   
  H           3    1.0000     8     6      [5s1p|3s1p]                                        
  O           4    8.0000    31    18      [11s5p1d|4s3p1d]                                   
  H           8    1.0000     8     6      [5s1p|3s1p]                                        
  ----------------------------------------------------------------------
  total:     16   50.0000   243   156
  ----------------------------------------------------------------------
  Spherical harmonic basis used.

  Threshold for neglecting AO integrals:  1.00D-12


  Cartesian Coordinates (a.u.)
  ----------------------------

  Total number of coordinates:   48
  N       :     1  x   0.0000000000    2  y   0.0000000000    3  z   0.0000000000
  H       :     4  x  -1.8270004457    5  y  -0.7154918849    6  z  -0.1971683547
  H       :     7  x   0.9395888369    8  y  -1.2232650741    9  z   1.0488357939
  H       :    10  x  -0.1756141385   11  y   1.5651826706   12  z   1.0228577289
  O       :    13  x   4.7749958774   14  y   1.0042666032   15  z   3.4262529886
  O       :    16  x   0.3136775292   17  y   1.7112207055   18  z  -5.2249094322
  O       :    19  x   0.1333787596   20  y   5.7384254991   21  z   0.5080226331
  O       :    22  x  -7.3328157767   23  y  -0.7823825205   24  z   1.4786369935
  H       :    25  x   3.8800385922   26  y   2.3388554434   27  z   4.1080283800
  H       :    28  x   6.5809069796   29  y   1.3530741411   30  z   4.0559531971
  H       :    31  x   1.2594249835   32  y   0.6524921953   33  z  -6.4664254812
  H       :    34  x   0.6661114515   35  y   0.9469549893   36  z  -3.4909005193
  H       :    37  x  -0.4739584300   38  y   6.1201539558   39  z   2.2757801648
  H       :    40  x  -0.9770677751   41  y   6.8438037884   42  z  -0.5288247383
  H       :    43  x  -8.2069804054   44  y   0.6869381231   45  z   0.5639075038
  H       :    46  x  -8.8743900987   47  y  -1.6333583200   48  z   1.8592883063


   Interatomic separations (in Angstrom):
   --------------------------------------

            N           H           H           H           O           O     
            ------      ------      ------      ------      ------      ------
 N     :    0.000000
 H     :    1.043531    0.000000
 H     :    0.987062    1.627973    0.000000
 H     :    0.993794    1.623894    1.589276    0.000000
 O     :    3.155083    4.087808    2.662995    2.927239    0.000000
 O     :    2.914145    3.164003    3.680078    3.317200    5.164449    0.000000
 O     :    3.049338    3.588798    3.719615    2.231126    3.833265    3.708675
 O     :    3.980056    3.045726    4.389677    3.993249    6.558050    5.540575
 H     :    3.236248    4.113789    2.931738    2.727454    0.923698    5.297500
 H     :    4.152942    5.104871    3.647285    3.920744    1.028771    5.929167
 H     :    3.503239    3.767987    4.102400    4.064057    5.558831    0.997988
 H     :    1.946251    2.356355    2.666646    2.451680    4.257599    1.019967
 H     :    3.464397    3.912773    4.010218    2.504892    3.926174    4.622944
 H     :    3.668995    4.029236    4.466462    2.942239    4.816067    3.744191
 H     :    4.368338    3.480127    4.951237    4.282244    7.036772    5.477973
 H     :    4.875317    3.915096    5.215529    4.924448    7.403153    6.389531

            O           O           H           H           H           H     
            ------      ------      ------      ------      ------      ------
 O     :    0.000000
 O     :    5.270751    0.000000
 H     :    3.285785    6.314393    0.000000
 H     :    4.533345    7.572865    1.521710    0.000000
 H     :    4.606506    6.239120    5.833696    6.250778    0.000000
 H     :    3.314584    5.066571    4.427744    5.078578    1.613121    0.000000
 H     :    1.009542    5.166579    3.201966    4.603087    5.533031    4.143709
 H     :    0.994234    5.359710    4.279027    5.506782    4.691189    3.598668
 H     :    5.160013    1.026085    6.722543    8.048361    6.239796    5.164315
 H     :    6.200842    0.953328    7.168560    8.410594    7.044953    5.947154

            H           H           H           H     
            ------      ------      ------      ------
 H     :    0.000000
 H     :    1.555691    0.000000
 H     :    5.082580    5.058356    0.000000
 H     :    6.053419    6.259812    1.449909    0.000000


  Max    interatomic separation is    8.4106 Angstrom (   15.8937 Bohr)
  between atoms   16 and   10, "H     " and "H     ".

  Min HX interatomic separation is    0.9237 Angstrom (    1.7455 Bohr)

  Min YX interatomic separation is    2.9141 Angstrom (    5.5069 Bohr)


  Bond distances (Angstrom):
  --------------------------

                  atom 1     atom 2       distance
                  ------     ------       --------
  bond distance:  H          N            1.043531
  bond distance:  H          N            0.987062
  bond distance:  H          N            0.993794
  bond distance:  H          O            0.923698
  bond distance:  H          O            1.028771
  bond distance:  H          O            0.997988
  bond distance:  H          O            1.019967
  bond distance:  H          O            1.009542
  bond distance:  H          O            0.994234
  bond distance:  H          O            1.026085
  bond distance:  H          O            0.953328


  Bond angles (degrees):
  ----------------------

                  atom 1     atom 2     atom 3         angle
                  ------     ------     ------         -----
  bond angle:     H          N          H            106.557
  bond angle:     H          N          H            105.677
  bond angle:     H          N          H            106.704
  bond angle:     H          O          H            102.274
  bond angle:     H          O          H            106.138
  bond angle:     H          O          H            101.858
  bond angle:     H          O          H             94.120




 Principal moments of inertia (u*A**2) and principal axes
 --------------------------------------------------------

   IA     326.379439          0.963800    0.253314    0.083191
   IB     530.065655         -0.028356   -0.212861    0.976671
   IC     636.198936         -0.265113    0.943675    0.197973


 Rotational constants
 --------------------

               A                   B                   C

           1548.4401            953.4272            794.3726 MHz
            0.051650            0.031803            0.026497 cm-1


@  Nuclear repulsion energy :  176.716716371465 Hartree


                     .---------------------------------------.
                     | Starting in Integral Section (HERMIT) |
                     `---------------------------------------'



 ***************************************************************************************
 ****************** Output from **INTEGRALS input processing (HERMIT) ******************
 ***************************************************************************************



    *************************************************************************
    ****************** Output from HERMIT input processing ******************
    *************************************************************************


 Default print level:        1

 * Nuclear model: Point charge

 Calculation of one- and two-electron Hamiltonian integrals.

 The following one-electron property integrals are calculated as requested:
          - overlap integrals
          - dipole length integrals

 Center of mass  (bohr):     -0.460619552484      1.569273637969      0.081865848074
 Operator center (bohr):      0.000000000000      0.000000000000      0.000000000000
 Gauge origin    (bohr):      0.000000000000      0.000000000000      0.000000000000
 Dipole origin   (bohr):      0.000000000000      0.000000000000      0.000000000000
 
  *********************************** 
  QMMM electrostatic potential: 
  Multipole order                                    0
  Isotropic polarization  
  *********************************** 
 
  ---------------- 
  QMMM information 
  ---------------- 
 
  MM coordinates in au 
  -------------------- 
     1     10.765796      1.697452      9.739834
     2     12.543936      2.146054     10.026135
     3      9.978512      3.405286      9.676379
     4     -8.708725    -11.565177      1.264633
     5     -7.590142    -12.949133      1.649984
     6     -8.342324    -10.136257      2.500595
     7     -2.291951     -5.622145      4.467983
     8     -0.994969     -6.087479      5.685150
     9     -4.002092     -6.450505      4.929634
    10     -7.777612      4.168193      9.427891
    11     -7.951009      5.140735     11.105756
    12     -8.157521      5.433441      8.189882
    13     -5.849793     -4.147686     -2.547166
    14     -6.625414     -3.176751     -1.155722
    15     -5.166439     -2.932173     -3.804000
    16      1.737762     -7.005617     -8.522618
    17      0.355988     -5.809572     -8.727471
    18      1.891058     -6.797904     -6.655997
    19      9.643987      0.785193     -8.559053
    20      8.612107      2.195310     -7.862703
    21      9.572801      0.847519    -10.432031
    22      5.084754     -8.843544     10.142746
    23      3.450116     -8.864734     10.874705
    24      4.816882     -9.557613      8.475097
    25      8.526142     -5.073926      9.822394
    26      8.776875     -4.430263     11.554341
    27      7.366912     -6.496340      9.941076
    28     -8.405967      0.270274     -9.032352
    29    -10.011149      1.117217     -8.771296
    30     -8.515259     -0.243731    -10.806359
    31     -4.884721     -5.284472    -10.492496
    32     -3.755462     -4.157016     -9.624643
    33     -6.059123     -6.027867     -9.362021
    34      1.991824     -6.815182     -3.077171
    35      3.089736     -8.220981     -2.756935
    36      0.474614     -7.008699     -1.995458
    37     -1.998151      2.152927      8.946466
    38     -2.799361      2.639035     10.560982
    39     -3.134271      1.048927      7.999402
    40    -10.909497     -1.601222     -3.844243
    41    -11.505456     -3.173360     -2.913485
    42     -9.335309     -2.161013     -4.751083
    43    -10.726025      6.872813     -4.526291
    44    -11.036847      8.532106     -3.984402
    45     -9.612895      6.811352     -5.957868
    46    -11.523181      7.163009      6.195769
    47    -11.930646      8.982484      6.428174
    48    -12.203621      6.978426      4.473894
    49      0.321730     -2.233692     10.703059
    50      1.562367     -2.988298      9.505379
    51     -0.039577     -0.414513     10.100106
    52     -2.341333     11.395275      6.485931
    53     -1.982814      9.587405      6.924556
    54     -4.090475     11.775193      6.830825
    55     -9.925928      2.781494     -0.914563
    56     -9.438934      4.278060     -1.995710
    57    -10.501110      1.569444     -2.328309
    58     -6.930219     -7.323197      4.224575
    59     -7.857602     -5.753831      3.601826
    60     -8.044222     -7.785870      5.660066
    61      4.224934     11.608986      6.260687
    62      4.639257      9.943937      5.651708
    63      3.233312     12.447609      4.908017
    64      9.650731    -10.621361      6.446069
    65      7.950775    -11.284246      6.566075
    66     10.100044    -10.093080      8.213150
    67      4.823713      3.962724    -11.561775
    68      5.995991      4.231331    -13.062762
    69      4.972143      2.327383    -10.765312
    70     11.420548    -10.579632     11.028566
    71     12.033672     -9.323705     12.290121
    72     10.244491    -11.681278     11.879725
    73     10.152278      6.455713      1.559789
    74     10.203004      7.763819      0.187397
    75     10.580493      4.864270      0.730111
    76      4.173148     -3.641111      7.004831
    77      5.909975     -3.698032      7.640218
    78      4.232777     -2.139467      5.876623
    79      0.975108      7.207020    -11.427580
    80      0.640793      7.230825    -13.219617
    81      2.380556      6.042866    -11.286695
    82     -4.433479     -1.290437     -6.636406
    83     -5.708933     -0.407355     -7.766763
    84     -3.213457     -0.053681     -6.019564
    85      9.657670     -6.082465     -2.770818
    86      9.612579     -6.655816     -1.066514
    87      8.031776     -5.318774     -3.162111
    88      7.921501      6.406213      8.965885
    89      7.688848      7.802288     10.246588
    90      9.634368      6.848957      8.072698
    91      3.303837     -0.623957     -9.007865
    92      2.322902     -1.412708    -10.391770
    93      4.264677     -1.804137     -8.069541
    94     -0.319145     11.619873     -9.398443
    95      0.199833     13.306027     -9.895993
    96      0.268693     10.302662    -10.580505
    97      8.775625      3.860272     -4.030712
    98      7.118298      4.774728     -3.905709
    99     10.218998      5.065713     -4.051871
   100      5.690326     -3.412193     -5.292497
   101      4.335929     -4.194954     -4.207058
   102      6.080468     -2.069437     -4.083711
   103      6.801952     10.237761    -11.367088
   104      6.012455     11.715737    -11.989961
   105      5.960574      9.554905     -9.950489
   106     -2.547209     -7.615628     -0.420026
   107     -2.553077     -6.694859      1.122868
   108     -3.512011     -6.514602     -1.645832
   109     -7.696429     -2.512971      9.713595
   110     -6.453177     -2.123875      8.295178
   111     -6.770140     -3.220350     11.180370
   112      5.956069    -10.027510     -3.734110
   113      7.260262     -8.847571     -4.215639
   114      5.374404    -11.206807     -5.096491
   115     -0.110092      6.596701      6.720652
   116     -0.679797      4.859612      7.091513
   117      1.779682      6.425675      6.750395
   118     -0.395435     -8.171561      9.338112
   119     -1.821301     -7.480910     10.204336
   120     -0.969505     -9.708451      8.318716
   121     -2.987113      4.679665     -8.768953
   122     -1.973522      3.693679     -7.525226
   123     -1.756602      5.883887     -9.694165
   124     -5.437543    -11.555643     -8.940763
   125     -3.570545    -11.359830     -9.203121
   126     -5.881538    -10.560256     -7.356795
   127      3.795768      9.936853     -6.459785
   128      3.426083      8.470214     -5.352147
   129      2.053305     10.260635     -7.065353
   130     -7.649213      6.998253     -8.717382
   131     -6.856731      8.758180     -9.063684
   132     -6.076428      6.170228     -8.201141
   133      3.822372      5.656670     -3.140870
   134      2.742331      4.296716     -3.857222
   135      3.718333      5.396699     -1.341356
   136      5.768941      6.585616      4.142896
   137      6.735800      6.582602      5.715921
   138      7.211270      6.544369      2.874268
   139      9.679009     10.541684     -1.443216
   140     10.985636     11.716387     -0.764523
   141      8.116886     11.559510     -1.804588
   142      9.331339     -4.149183     -8.581653
   143      8.179207     -4.704010     -7.270122
   144      9.445460     -2.279579     -8.239370
   145      6.608586     -0.314598     -1.440814
   146      7.624247      1.039576     -2.284004
   147      5.540851      0.384590     -0.148056
   148     -7.084663    -10.993952      9.041812
   149     -6.430213    -11.019169     10.729196
   150     -8.822859    -10.906594      9.479781
   151     -7.429199     -9.156870     -3.887376
   152     -7.584671     -7.369875     -3.785830
   153     -7.154584     -9.701850     -2.110737
   154    -10.357256     -6.215510      8.037476
   155     -9.186095     -4.772634      8.702253
   156    -11.985431     -5.907575      8.993758
   157      9.579290      0.866764      4.718663
   158     10.427675     -0.675205      4.185318
   159     10.165304      1.080797      6.392112
   160      3.360583     -7.750816      3.545173
   161      3.727060     -6.705841      4.949159
   162      2.259933     -6.860923      2.346584
   163     -2.988934     10.566806      1.029379
   164     -2.516881     10.746619      2.884499
   165     -3.173668     12.274223      0.300912
   166     -4.443627     -0.976915      6.079302
   167     -5.787330     -0.539742      4.816232
   168     -3.094270     -2.067513      5.187531
   169      8.964532     -7.829472      2.120397
   170      7.067797     -7.599588      1.818533
   171      8.998974     -9.082842      3.499918
   172    -11.046980     -3.464879      3.662401
   173    -11.190083     -4.104871      5.422813
   174    -12.490984     -4.542696      2.921347
   175    -10.252945     -7.534661     -8.158815
   176    -10.842047     -8.373981     -6.595354
   177    -11.597809     -6.306793     -8.436688
 
  MM charges 
  ---------- 
     1     -0.674440
     2      0.337220
     3      0.337220
     4     -0.674440
     5      0.337220
     6      0.337220
     7     -0.674440
     8      0.337220
     9      0.337220
    10     -0.674440
    11      0.337220
    12      0.337220
    13     -0.674440
    14      0.337220
    15      0.337220
    16     -0.674440
    17      0.337220
    18      0.337220
    19     -0.674440
    20      0.337220
    21      0.337220
    22     -0.674440
    23      0.337220
    24      0.337220
    25     -0.674440
    26      0.337220
    27      0.337220
    28     -0.674440
    29      0.337220
    30      0.337220
    31     -0.674440
    32      0.337220
    33      0.337220
    34     -0.674440
    35      0.337220
    36      0.337220
    37     -0.674440
    38      0.337220
    39      0.337220
    40     -0.674440
    41      0.337220
    42      0.337220
    43     -0.674440
    44      0.337220
    45      0.337220
    46     -0.674440
    47      0.337220
    48      0.337220
    49     -0.674440
    50      0.337220
    51      0.337220
    52     -0.674440
    53      0.337220
    54      0.337220
    55     -0.674440
    56      0.337220
    57      0.337220
    58     -0.674440
    59      0.337220
    60      0.337220
    61     -0.674440
    62      0.337220
    63      0.337220
    64     -0.674440
    65      0.337220
    66      0.337220
    67     -0.674440
    68      0.337220
    69      0.337220
    70     -0.674440
    71      0.337220
    72      0.337220
    73     -0.674440
    74      0.337220
    75      0.337220
    76     -0.674440
    77      0.337220
    78      0.337220
    79     -0.674440
    80      0.337220
    81      0.337220
    82     -0.674440
    83      0.337220
    84      0.337220
    85     -0.674440
    86      0.337220
    87      0.337220
    88     -0.674440
    89      0.337220
    90      0.337220
    91     -0.674440
    92      0.337220
    93      0.337220
    94     -0.674440
    95      0.337220
    96      0.337220
    97     -0.674440
    98      0.337220
    99      0.337220
   100     -0.674440
   101      0.337220
   102      0.337220
   103     -0.674440
   104      0.337220
   105      0.337220
   106     -0.674440
   107      0.337220
   108      0.337220
   109     -0.674440
   110      0.337220
   111      0.337220
   112     -0.674440
   113      0.337220
   114      0.337220
   115     -0.674440
   116      0.337220
   117      0.337220
   118     -0.674440
   119      0.337220
   120      0.337220
   121     -0.674440
   122      0.337220
   123      0.337220
   124     -0.674440
   125      0.337220
   126      0.337220
   127     -0.674440
   128      0.337220
   129      0.337220
   130     -0.674440
   131      0.337220
   132      0.337220
   133     -0.674440
   134      0.337220
   135      0.337220
   136     -0.674440
   137      0.337220
   138      0.337220
   139     -0.674440
   140      0.337220
   141      0.337220
   142     -0.674440
   143      0.337220
   144      0.337220
   145     -0.674440
   146      0.337220
   147      0.337220
   148     -0.674440
   149      0.337220
   150      0.337220
   151     -0.674440
   152      0.337220
   153      0.337220
   154     -0.674440
   155      0.337220
   156      0.337220
   157     -0.674440
   158      0.337220
   159      0.337220
   160     -0.674440
   161      0.337220
   162      0.337220
   163     -0.674440
   164      0.337220
   165      0.337220
   166     -0.674440
   167      0.337220
   168      0.337220
   169     -0.674440
   170      0.337220
   171      0.337220
   172     -0.674440
   173      0.337220
   174      0.337220
   175     -0.674440
   176      0.337220
   177      0.337220
 
  MM isotropic polarizabilities in au 
  ----------------------------------- 
     1      5.739350
     2      2.308390
     3      2.308390
     4      5.739350
     5      2.308390
     6      2.308390
     7      5.739350
     8      2.308390
     9      2.308390
    10      5.739350
    11      2.308390
    12      2.308390
    13      5.739350
    14      2.308390
    15      2.308390
    16      5.739350
    17      2.308390
    18      2.308390
    19      5.739350
    20      2.308390
    21      2.308390
    22      5.739350
    23      2.308390
    24      2.308390
    25      5.739350
    26      2.308390
    27      2.308390
    28      5.739350
    29      2.308390
    30      2.308390
    31      5.739350
    32      2.308390
    33      2.308390
    34      5.739350
    35      2.308390
    36      2.308390
    37      5.739350
    38      2.308390
    39      2.308390
    40      5.739350
    41      2.308390
    42      2.308390
    43      5.739350
    44      2.308390
    45      2.308390
    46      5.739350
    47      2.308390
    48      2.308390
    49      5.739350
    50      2.308390
    51      2.308390
    52      5.739350
    53      2.308390
    54      2.308390
    55      5.739350
    56      2.308390
    57      2.308390
    58      5.739350
    59      2.308390
    60      2.308390
    61      5.739350
    62      2.308390
    63      2.308390
    64      5.739350
    65      2.308390
    66      2.308390
    67      5.739350
    68      2.308390
    69      2.308390
    70      5.739350
    71      2.308390
    72      2.308390
    73      5.739350
    74      2.308390
    75      2.308390
    76      5.739350
    77      2.308390
    78      2.308390
    79      5.739350
    80      2.308390
    81      2.308390
    82      5.739350
    83      2.308390
    84      2.308390
    85      5.739350
    86      2.308390
    87      2.308390
    88      5.739350
    89      2.308390
    90      2.308390
    91      5.739350
    92      2.308390
    93      2.308390
    94      5.739350
    95      2.308390
    96      2.308390
    97      5.739350
    98      2.308390
    99      2.308390
   100      5.739350
   101      2.308390
   102      2.308390
   103      5.739350
   104      2.308390
   105      2.308390
   106      5.739350
   107      2.308390
   108      2.308390
   109      5.739350
   110      2.308390
   111      2.308390
   112      5.739350
   113      2.308390
   114      2.308390
   115      5.739350
   116      2.308390
   117      2.308390
   118      5.739350
   119      2.308390
   120      2.308390
   121      5.739350
   122      2.308390
   123      2.308390
   124      5.739350
   125      2.308390
   126      2.308390
   127      5.739350
   128      2.308390
   129      2.308390
   130      5.739350
   131      2.308390
   132      2.308390
   133      5.739350
   134      2.308390
   135      2.308390
   136      5.739350
   137      2.308390
   138      2.308390
   139      5.739350
   140      2.308390
   141      2.308390
   142      5.739350
   143      2.308390
   144      2.308390
   145      5.739350
   146      2.308390
   147      2.308390
   148      5.739350
   149      2.308390
   150      2.308390
   151      5.739350
   152      2.308390
   153      2.308390
   154      5.739350
   155      2.308390
   156      2.308390
   157      5.739350
   158      2.308390
   159      2.308390
   160      5.739350
   161      2.308390
   162      2.308390
   163      5.739350
   164      2.308390
   165      2.308390
   166      5.739350
   167      2.308390
   168      2.308390
   169      5.739350
   170      2.308390
   171      2.308390
   172      5.739350
   173      2.308390
   174      2.308390
   175      5.739350
   176      2.308390
   177      2.308390


     ************************************************************************
     ************************** Output from HERINT **************************
     ************************************************************************



                      Nuclear contribution to dipole moments
                      --------------------------------------

                 au               Debye          C m (/(10**-30)

      x    -24.09504933       -61.24350268      -204.28633557
      y     78.30758233       199.03800824       663.91933130
      z      5.75535745        14.62865854        48.79595248


  Time used in HUCKEL     is       0.41 seconds
  Time used in OVERLAP    is       0.13 seconds
  Time used in POPOVLP    is       0.22 seconds
  Time used in DIPLEN     is       0.49 seconds
  Time used in QUADRUP    is       0.40 seconds
  Time used in KINENE     is       0.47 seconds

 Threshold for neglecting two-electron integrals:  1.00D-12
 HERMIT - Number of two-electron integrals written:    24554319 ( 32.7% )
 HERMIT - Megabytes written:                            281.159

  Time used in TWOINT     is      14.38 seconds
  Total CPU  time used in HERMIT:  16.55 seconds
  Total wall time used in HERMIT:   5.45 seconds


                        .----------------------------------.
                        | End of Integral Section (HERMIT) |
                        `----------------------------------'



                   .--------------------------------------------.
                   | Starting in Wave Function Section (SIRIUS) |
                   `--------------------------------------------'

NCCEXCI for singlet:   15
 CCSD_INPUT: core-val requested
 Requested number of core orbs per sym
                     1
 Indices of requested core orbs
                     1

 *** Output from Huckel module :

     Using EWMO model:          T
     Using EHT  model:          F
     Number of Huckel orbitals each symmetry:   36

 EWMO - Energy Weighted Maximum Overlap - is a Huckel type method,
        which normally is better than Extended Huckel Theory.
 Reference: Linderberg and Ohrn, Propagators in Quantum Chemistry (Wiley, 1973)

 Huckel EWMO eigenvalues for symmetry :  1
          -20.684777     -20.684518     -20.684361     -20.684181     -15.674232
           -1.680553      -1.601285      -1.597706      -1.579001      -1.487589
           -0.811776      -0.791705      -0.765497      -0.755136      -0.729880
           -0.725076      -0.702867      -0.695510      -0.676468      -0.663756
           -0.616223      -0.615723      -0.612953      -0.594153      -0.523997
           -0.255949      -0.242381      -0.237330      -0.234506      -0.184722
           -0.182760      -0.176848      -0.169964      -0.165388      -0.146720
           -0.140312

 **********************************************************************
 *SIRIUS* a direct, restricted step, second order MCSCF program       *
 **********************************************************************

 
     Date and time (Linux)  : Sun Dec 30 01:03:03 2018
     Host name              : n-62-23-14                              

 Title lines from ".mol" input file:
                                                                             
                                                                             

 Print level on unit LUPRI =   2 is   0
 Print level on unit LUW4  =   2 is  11

@    (Integral direct) CC calculation.

@    This is a combination run starting with
@              a restricted, closed shell Hartree-Fock calculation


 Initial molecular orbitals are obtained according to
 ".MOSTART EWMO  " input option

@    QM part is embedded in an environment :

@         Model: QMMM

     Wave function specification
     ============================

     For the specification of the Coupled Cluster: see later.

@    Wave function type        --- CC ---
@    Number of closed shell electrons          50
@    Number of electrons in active shells       0
@    Total charge of the molecule               0

@    Spin multiplicity and 2 M_S                1         0
@    Total number of symmetries                 1 (point group: C1 )
@    Reference state symmetry                   1 (irrep name : A  )

     Orbital specifications
     ======================
@    Abelian symmetry species          All |    1
@                                          |  A  
                                       --- |  ---
@    Occupied SCF orbitals              25 |   25
@    Secondary orbitals                131 |  131
@    Total number of orbitals          156 |  156
@    Number of basis functions         156 |  156

     Optimization information
     ========================
@    Number of configurations                 1
@    Number of orbital rotations           3275
     ------------------------------------------
@    Total number of variables             3276

     Maximum number of Fock   iterations      0
     Maximum number of DIIS   iterations     60
     Maximum number of QC-SCF iterations     60
     Threshold for SCF convergence     1.00D-07


 Changes of defaults for CC:
 ---------------------------


 -Implicit frozen core calculation
 -Excitation energies calculated
 -One-photon absorption strengths will be calculated
 -Oscillator strengths calculated
  
* Read MO coefficients from SIRIUS.RST with label "NEWORB  " and header info: 30Dec18  REORTHO 


 ***********************************************
 ***** DIIS acceleration of SCF iterations *****
 ***********************************************

 C1-DIIS algorithm; max error vectors =    8
 -----------------------------------------------------------------------------

 *** DIIS iteration number    1
 RDSUPM called. NFMAT, ISYMDM(1:NFMAT)                     1
                     1

Calculating AOSUPINT
     (Precalculated two-electron integrals are transformed to P-supermatrix elements.
      Threshold for discarding integrals :  1.00D-12 )
  CPU  time used in FORMSUP    is   7.36 seconds
  WALL time used in FORMSUP    is   6.42 seconds

 ITDIIS, energy, error norm, change in energy, scr.thr., difden:
@ DIIS iter.   1    -359.880876385        3.84239D+00   -3.60D+02  -20    F

 (DIIS_RED) Control Parameters C2DIIS =         F NEVC =    1


 (DIIS_RED) B matrix:

               Column   1
       1      14.76393331
    ==== End of matrix output ====

 DIIS C vector; C2DIIS = F, LAMBDA = -1.48D+01
    1.000000
* Read MO coefficients from SIRIUS.RST with label "NEWORB  " and header info: 30Dec18  DIIS   1
      Virial theorem: -V/T =      1.998420
@      MULPOP N      -0.40; H       0.16; H       0.17; H       0.18; O      -0.63; O      -0.78; O      -0.61; O      -0.65; H       0.33; H       0.31; 
@             H       0.32; H       0.31; H       0.33; H       0.32; H       0.33; H       0.33; 
   1  Level shift: doubly occupied orbital energies shifted by -2.00D-01

 DIIS Fock eigenvalues in symmetry 1
      -20.72753      -20.72306      -20.70743      -20.59347      -15.97688
       -1.55976       -1.55903       -1.53383       -1.48059       -1.45055
       -0.95592       -0.94296       -0.92688       -0.91176       -0.90811
       -0.87936       -0.81303       -0.79460       -0.78407       -0.76709
       -0.76296       -0.75701       -0.73461       -0.72254       -0.69033
        0.09419        0.14086        0.16216        0.17308        0.20133
        0.22178        0.22981        0.26747        0.27684        0.28680
        0.32424        0.42650        0.43774        0.50295        0.52011
        0.54290        0.55829        0.57747        0.59007        0.59743
        0.60429        0.61025        0.79624        0.84223        0.88605
        0.92978        0.95012        0.97227        0.98230        1.00604
        1.04160        1.04570        1.06221        1.09140        1.09607
        1.12413        1.13980        1.20297        1.23849        1.25030
        1.31551        1.31824        1.32399        1.37534        1.42108
        1.44051        1.45566        1.46685        1.48385        1.50325
        1.51886        1.54652        1.60688        1.64608        1.65713
        1.70129        1.72836        1.73521        1.82386        1.86351
        1.89014        1.92405        1.94152        1.96606        2.07437
        2.09196        2.13900        2.14139        2.17512        2.23906
        2.28627        2.33555        2.34076        2.38501        2.47844
        2.54639        2.54798        2.55660        2.58929        2.64849
        2.66096        2.75314        2.76453        2.79068        2.81127
        2.81629        2.86375        2.88264        3.06174        3.31765
        3.35707        3.40925        3.41104        3.44022        3.46744
        3.47132        3.48445        3.51598        3.53523        3.61774
        3.62882        3.66593        3.66998        3.90626        3.93785
        3.95866        4.03150        4.20453        4.23423        4.23624
        4.24586        4.38986        5.00804        5.11407        5.28793
        5.30116        5.36765        5.39193        5.74006        5.74156
        5.76067        5.77635        5.99999        6.02396        6.10805
        6.13572       36.81816       51.53562       51.54752       51.56386
       51.67687
 Time used in FCKEIG, thr_jaco:   3.98D-01  4.00D-02  1.68D-04
 CPU and wall times used in FCKEIG, THR_FCKEIG:   3.98D-01  4.00D-02  3.84D-02
 -----------------------------------------------------------------------------

 *** DIIS iteration number    2
 RDSUPM called. NFMAT, ISYMDM(1:NFMAT)                     1
                     1

 ITDIIS, energy, error norm, change in energy, scr.thr., difden:
@ DIIS iter.   2    -360.692960727        9.17095D-01   -8.12D-01  -20    F

 (DIIS_RED) Control Parameters C2DIIS =         F NEVC =    2


 (DIIS_RED) B matrix:

               Column   1     Column   2
       1      14.76393331
       2       0.88193554     0.84106302
    ==== End of matrix output ====

 DIIS C vector; C2DIIS = F, LAMBDA = -8.41D-01
   -0.002953    1.002953
* Read MO coefficients from SIRIUS.RST with label "NEWORB  " and header info: 30Dec18  DIIS   2
      Virial theorem: -V/T =      2.003762
@      MULPOP N      -0.63; H       0.21; H       0.22; H       0.22; O      -0.57; O      -0.65; O      -0.51; O      -0.63; H       0.25; H       0.33; 
@             H       0.28; H       0.30; H       0.27; H       0.27; H       0.34; H       0.29; 
   2  Level shift: doubly occupied orbital energies shifted by -5.00D-02

 DIIS Fock eigenvalues in symmetry 1
      -20.66775      -20.64190      -20.62287      -20.61813      -15.49625
       -1.39345       -1.39187       -1.38569       -1.38491       -1.17503
       -0.75094       -0.74906       -0.74257       -0.72520       -0.68004
       -0.66841       -0.65589       -0.64463       -0.63797       -0.63390
       -0.58673       -0.58577       -0.57954       -0.57273       -0.47790
        0.13428        0.17364        0.19141        0.19619        0.22912
        0.23967        0.26440        0.28951        0.30028        0.32448
        0.33690        0.48115        0.49241        0.52942        0.55739
        0.58326        0.59721        0.61211        0.61941        0.63879
        0.64813        0.67353        0.88064        0.93047        0.94518
        0.95301        0.96249        0.98583        0.99391        1.01339
        1.05238        1.06831        1.08428        1.10202        1.11694
        1.12665        1.17398        1.25684        1.31112        1.33264
        1.33925        1.35628        1.38020        1.41988        1.46013
        1.47198        1.49590        1.53029        1.54167        1.54718
        1.57002        1.57296        1.66686        1.70230        1.70994
        1.74256        1.81333        1.81777        1.89303        1.92875
        1.95486        1.99236        2.00720        2.03521        2.18238
        2.18695        2.19459        2.21139        2.22510        2.25993
        2.34548        2.40831        2.41746        2.44563        2.56346
        2.61267        2.61645        2.62596        2.63810        2.72215
        2.74214        2.81471        2.83941        2.86917        2.87952
        2.89524        3.00958        3.02766        3.19514        3.41088
        3.43553        3.43904        3.44228        3.47103        3.48039
        3.50497        3.51457        3.53897        3.54578        3.63057
        3.64402        3.65004        3.69933        3.93444        3.94606
        3.98219        3.99167        4.18557        4.21380        4.26315
        4.27206        4.58447        5.21679        5.28438        5.29645
        5.30668        5.31843        5.35479        5.64021        5.73897
        5.76301        5.76852        6.02196        6.02284        6.05299
        6.13266       37.14317       51.45640       51.46710       51.49320
       51.52156
 Time used in FCKEIG, thr_jaco:   2.76D-01  2.80D-02  4.01D-05
 CPU and wall times used in FCKEIG, THR_FCKEIG:   2.77D-01  2.80D-02  9.17D-03
 -----------------------------------------------------------------------------

 *** DIIS iteration number    3
 RDSUPM called. NFMAT, ISYMDM(1:NFMAT)                     1
                     1

 ITDIIS, energy, error norm, change in energy, scr.thr., difden:
@ DIIS iter.   3    -360.752488265        3.23545D-01   -5.95D-02  -20    F

 (DIIS_RED) Control Parameters C2DIIS =         F NEVC =    3


 (DIIS_RED) B matrix:

               Column   1     Column   2     Column   3
       1      14.76393331
       2       0.88193554     0.84106302
       3       0.57561507     0.08219873     0.10468155
    ==== End of matrix output ====

 DIIS C vector; C2DIIS = F, LAMBDA = -8.70D-02
   -0.035378    0.043662    0.991716
* Read MO coefficients from SIRIUS.RST with label "NEWORB  " and header info: 30Dec18  DIIS   3
      Virial theorem: -V/T =      2.001796
@      MULPOP N      -0.56; H       0.18; H       0.20; H       0.20; O      -0.63; O      -0.73; O      -0.57; O      -0.70; H       0.27; H       0.37; 
@             H       0.34; H       0.33; H       0.29; H       0.29; H       0.38; H       0.32; 
   3  Level shift: doubly occupied orbital energies shifted by -2.50D-02

 DIIS Fock eigenvalues in symmetry 1
      -20.56615      -20.56118      -20.56086      -20.52437      -15.59657
       -1.35596       -1.35474       -1.33943       -1.31981       -1.18192
       -0.71047       -0.69787       -0.69380       -0.68592       -0.67078
       -0.65717       -0.61661       -0.59695       -0.59252       -0.57953
       -0.53905       -0.53212       -0.51948       -0.51142       -0.47388
        0.13902        0.17740        0.19591        0.20163        0.23227
        0.24452        0.26575        0.29422        0.30342        0.32690
        0.34418        0.48429        0.49544        0.54394        0.56580
        0.59081        0.60497        0.62265        0.62885        0.64723
        0.65495        0.67611        0.87514        0.92506        0.95709
        0.97087        0.98424        1.00295        1.01369        1.01449
        1.06775        1.07784        1.10051        1.11709        1.12786
        1.14407        1.18104        1.25637        1.31891        1.34165
        1.34771        1.35809        1.38937        1.42736        1.47748
        1.48559        1.50680        1.54168        1.55383        1.56351
        1.58144        1.58479        1.67535        1.71303        1.72038
        1.75623        1.81269        1.82320        1.90104        1.93626
        1.96300        1.99990        2.01405        2.04168        2.17557
        2.19183        2.20453        2.21039        2.23489        2.28042
        2.36224        2.41983        2.43095        2.46316        2.57033
        2.62285        2.62559        2.63509        2.65128        2.72920
        2.75006        2.82596        2.84575        2.87954        2.88581
        2.89071        2.98596        3.00486        3.17694        3.43824
        3.45529        3.45892        3.46559        3.47797        3.50808
        3.50997        3.53444        3.54232        3.56537        3.67028
        3.67218        3.67820        3.71888        3.95375        3.97441
        4.00426        4.03593        4.23732        4.24382        4.28440
        4.29377        4.52663        5.16852        5.27518        5.31934
        5.33087        5.35955        5.38693        5.71089        5.76681
        5.79235        5.79640        6.04595        6.05889        6.12198
        6.15657       37.02192       51.52169       51.52522       51.55357
       51.57512
 Time used in FCKEIG, thr_jaco:   2.50D-01  2.50D-02  1.41D-05
 CPU and wall times used in FCKEIG, THR_FCKEIG:   2.50D-01  2.50D-02  3.24D-03
 -----------------------------------------------------------------------------

 *** DIIS iteration number    4
 RDSUPM called. NFMAT, ISYMDM(1:NFMAT)                     1
                     1

 ITDIIS, energy, error norm, change in energy, scr.thr., difden:
@ DIIS iter.   4    -360.760183892        1.21243D-01   -7.70D-03  -20    F

 (DIIS_RED) Control Parameters C2DIIS =         F NEVC =    4


 (DIIS_RED) B matrix:

               Column   1     Column   2     Column   3     Column   4
       1      14.76393331
       2       0.88193554     0.84106302
       3       0.57561507     0.08219873     0.10468155
       4      -0.00940912     0.07809220    -0.00841995     0.01469987
    ==== End of matrix output ====

 DIIS C vector; C2DIIS = F, LAMBDA = -4.10D-03
   -0.000870   -0.097097    0.193015    0.904952
* Read MO coefficients from SIRIUS.RST with label "NEWORB  " and header info: 30Dec18  DIIS   4
      Virial theorem: -V/T =      2.002688
@      MULPOP N      -0.62; H       0.20; H       0.22; H       0.22; O      -0.64; O      -0.72; O      -0.57; O      -0.71; H       0.27; H       0.38; 
@             H       0.33; H       0.33; H       0.30; H       0.30; H       0.39; H       0.33; 
   4  Level shift: doubly occupied orbital energies shifted by -1.25D-02

 DIIS Fock eigenvalues in symmetry 1
      -20.56666      -20.56374      -20.55763      -20.55024      -15.54581
       -1.34702       -1.34662       -1.33343       -1.31910       -1.15677
       -0.70048       -0.68991       -0.68721       -0.67671       -0.64880
       -0.63475       -0.60690       -0.58566       -0.58351       -0.57555
       -0.52696       -0.51940       -0.51007       -0.50749       -0.44734
        0.13952        0.17727        0.19514        0.20111        0.23238
        0.24383        0.26797        0.29350        0.30328        0.32905
        0.34560        0.48844        0.49973        0.54459        0.56474
        0.59118        0.60473        0.62074        0.62773        0.64560
        0.65237        0.68015        0.88246        0.93199        0.95953
        0.97114        0.98217        1.00250        1.01212        1.01670
        1.06711        1.07810        1.09906        1.11528        1.12691
        1.14116        1.18202        1.25994        1.32022        1.34123
        1.34813        1.36173        1.38748        1.42965        1.47554
        1.48333        1.50547        1.53957        1.55180        1.56198
        1.57849        1.58316        1.67272        1.71205        1.71886
        1.75581        1.81855        1.82799        1.90154        1.93843
        1.96169        2.00232        2.01230        2.04497        2.18385
        2.19505        2.20166        2.21325        2.23272        2.27585
        2.35836        2.41616        2.42836        2.46333        2.57413
        2.62080        2.62330        2.63393        2.65087        2.73272
        2.75424        2.82561        2.84529        2.87859        2.88388
        2.89780        2.99984        3.01833        3.18817        3.44029
        3.45315        3.45571        3.46405        3.47863        3.50373
        3.51698        3.53128        3.53696        3.56328        3.66674
        3.66723        3.66797        3.71705        3.95062        3.96871
        4.00157        4.02533        4.22566        4.23829        4.28146
        4.29129        4.54892        5.18846        5.29413        5.31409
        5.32625        5.33989        5.37818        5.69152        5.76167
        5.78720        5.78855        6.04031        6.04930        6.10288
        6.15194       37.05947       51.50379       51.51524       51.53708
       51.54534
 Time used in FCKEIG, thr_jaco:   2.40D-01  2.50D-02  5.30D-06
 CPU and wall times used in FCKEIG, THR_FCKEIG:   2.40D-01  2.50D-02  1.21D-03
 -----------------------------------------------------------------------------

 *** DIIS iteration number    5
 RDSUPM called. NFMAT, ISYMDM(1:NFMAT)                     1
                     1

 ITDIIS, energy, error norm, change in energy, scr.thr., difden:
@ DIIS iter.   5    -360.761315337        2.44501D-02   -1.13D-03  -20    F

 (DIIS_RED) Control Parameters C2DIIS =         F NEVC =    5


 (DIIS_RED) B matrix:

               Column   1     Column   2     Column   3     Column   4     Column   5
       1      14.76393331
       2       0.88193554     0.84106302
       3       0.57561507     0.08219873     0.10468155
       4      -0.00940912     0.07809220    -0.00841995     0.01469987
       5       0.01449366     0.00636867     0.00506667     0.00063817     0.00059781
    ==== End of matrix output ====

 DIIS C vector; C2DIIS = F, LAMBDA = -3.10D-04
    0.001307    0.009275   -0.079280   -0.124551    1.193248
* Read MO coefficients from SIRIUS.RST with label "NEWORB  " and header info: 30Dec18  DIIS   5
      Virial theorem: -V/T =      2.002282
@      MULPOP N      -0.61; H       0.20; H       0.21; H       0.22; O      -0.65; O      -0.74; O      -0.58; O      -0.72; H       0.27; H       0.38; 
@             H       0.34; H       0.34; H       0.30; H       0.30; H       0.40; H       0.33; 

 DIIS Fock eigenvalues in symmetry 1
      -20.55124      -20.55005      -20.54417      -20.53125      -15.53001
       -1.33416       -1.33366       -1.31996       -1.30410       -1.14338
       -0.68803       -0.67678       -0.67338       -0.66418       -0.63578
       -0.62158       -0.59468       -0.57330       -0.57067       -0.56103
       -0.51301       -0.50566       -0.49594       -0.49168       -0.43325
        0.13953        0.17722        0.19496        0.20119        0.23250
        0.24375        0.26814        0.29334        0.30319        0.32920
        0.34609        0.48874        0.49999        0.54511        0.56464
        0.59119        0.60469        0.62076        0.62806        0.64533
        0.65198        0.68055        0.88318        0.93265        0.96061
        0.97231        0.98325        1.00407        1.01326        1.01746
        1.06755        1.07844        1.09976        1.11560        1.12709
        1.14217        1.18218        1.26049        1.32066        1.34146
        1.34840        1.36212        1.38721        1.43008        1.47631
        1.48348        1.50533        1.53922        1.55158        1.56252
        1.57793        1.58373        1.67226        1.71191        1.71860
        1.75608        1.81897        1.82827        1.90134        1.93861
        1.96112        2.00235        2.01180        2.04516        2.18420
        2.19500        2.20148        2.21335        2.23220        2.27655
        2.35833        2.41577        2.42797        2.46398        2.57448
        2.62026        2.62273        2.63355        2.65094        2.73276
        2.75453        2.82532        2.84467        2.87807        2.88311
        2.89824        3.00061        3.01905        3.18892        3.44231
        3.45343        3.45604        3.46513        3.48031        3.50459
        3.51842        3.53164        3.53884        3.56350        3.66743
        3.66782        3.67016        3.71723        3.95098        3.96958
        4.00185        4.02770        4.22826        4.23923        4.28178
        4.29155        4.55056        5.18994        5.29550        5.31500
        5.32717        5.34377        5.37992        5.69525        5.76234
        5.78770        5.78973        6.04064        6.05056        6.10628
        6.15213       37.06270       51.50668       51.51643       51.54288
       51.54685
 Time used in FCKEIG, thr_jaco:   2.24D-01  2.30D-02  1.07D-06
 CPU and wall times used in FCKEIG, THR_FCKEIG:   2.24D-01  2.30D-02  2.45D-04
 -----------------------------------------------------------------------------

 *** DIIS iteration number    6
 RDSUPM called. NFMAT, ISYMDM(1:NFMAT)                     1
                     1

 ITDIIS, energy, error norm, change in energy, scr.thr., difden:
@ DIIS iter.   6    -360.761403427        7.62095D-03   -8.81D-05  -20    F

 (DIIS_RED) Control Parameters C2DIIS =         F NEVC =    6


 (DIIS_RED) B matrix:

               Column   1     Column   2     Column   3     Column   4     Column   5     Column   6
       1      14.76393331
       2       0.88193554     0.84106302
       3       0.57561507     0.08219873     0.10468155
       4      -0.00940912     0.07809220    -0.00841995     0.01469987
       5       0.01449366     0.00636867     0.00506667     0.00063817     0.00059781
       6      -0.00213927    -0.00034664     0.00051660     0.00017744     0.00007236     0.00005808
    ==== End of matrix output ====

 DIIS C vector; C2DIIS = F, LAMBDA = -3.43D-05
    0.000494    0.008427   -0.027088   -0.075597    0.151903    0.941861
* Read MO coefficients from SIRIUS.RST with label "NEWORB  " and header info: 30Dec18  DIIS   6
      Virial theorem: -V/T =      2.002419
@      MULPOP N      -0.61; H       0.19; H       0.21; H       0.22; O      -0.65; O      -0.74; O      -0.58; O      -0.73; H       0.28; H       0.38; 
@             H       0.35; H       0.34; H       0.30; H       0.30; H       0.40; H       0.33; 

 DIIS Fock eigenvalues in symmetry 1
      -20.55237      -20.55030      -20.54428      -20.53329      -15.53333
       -1.33413       -1.33365       -1.32028       -1.30458       -1.14444
       -0.68814       -0.67711       -0.67389       -0.66429       -0.63673
       -0.62244       -0.59496       -0.57357       -0.57122       -0.56165
       -0.51284       -0.50549       -0.49618       -0.49202       -0.43413
        0.13943        0.17715        0.19485        0.20109        0.23238
        0.24366        0.26799        0.29327        0.30311        0.32899
        0.34596        0.48846        0.49972        0.54489        0.56457
        0.59103        0.60452        0.62058        0.62784        0.64522
        0.65186        0.68023        0.88266        0.93202        0.96052
        0.97219        0.98303        1.00377        1.01305        1.01711
        1.06741        1.07828        1.09952        1.11539        1.12696
        1.14182        1.18192        1.26000        1.32030        1.34140
        1.34830        1.36169        1.38706        1.42972        1.47603
        1.48326        1.50515        1.53902        1.55138        1.56233
        1.57776        1.58349        1.67212        1.71170        1.71844
        1.75589        1.81848        1.82791        1.90107        1.93833
        1.96095        2.00207        2.01159        2.04484        2.18356
        2.19459        2.20118        2.21281        2.23199        2.27619
        2.35803        2.41561        2.42783        2.46361        2.57405
        2.62009        2.62254        2.63329        2.65074        2.73244
        2.75423        2.82515        2.84441        2.87787        2.88291
        2.89760        2.99954        3.01800        3.18801        3.44149
        3.45338        3.45595        3.46461        3.47932        3.50416
        3.51738        3.53156        3.53802        3.56344        3.66735
        3.66740        3.66958        3.71717        3.95090        3.96916
        4.00176        4.02708        4.22762        4.23881        4.28171
        4.29149        4.54875        5.18826        5.29387        5.31490
        5.32709        5.34279        5.37927        5.69420        5.76212
        5.78754        5.78925        6.04048        6.04992        6.10525
        6.15204       37.05945       51.50555       51.51617       51.54119
       51.54643
 Time used in FCKEIG, thr_jaco:   2.19D-01  2.20D-02  3.33D-07
 CPU and wall times used in FCKEIG, THR_FCKEIG:   2.19D-01  2.20D-02  7.62D-05
 -----------------------------------------------------------------------------

 *** DIIS iteration number    7
 RDSUPM called. NFMAT, ISYMDM(1:NFMAT)                     1
                     1

 ITDIIS, energy, error norm, change in energy, scr.thr., difden:
@ DIIS iter.   7    -360.761409400        2.52415D-03   -5.97D-06  -20    F

 (DIIS_RED) Control Parameters C2DIIS =         F NEVC =    7


 (DIIS_RED) B matrix:

               Column   1     Column   2     Column   3     Column   4     Column   5     Column   6
       1      14.76393331
       2       0.88193554     0.84106302
       3       0.57561507     0.08219873     0.10468155
       4      -0.00940912     0.07809220    -0.00841995     0.01469987
       5       0.01449366     0.00636867     0.00506667     0.00063817     0.00059781
       6      -0.00213927    -0.00034664     0.00051660     0.00017744     0.00007236     0.00005808
       7       0.00087834    -0.00002088     0.00007467    -0.00000885     0.00003604    -0.00000091

               Column   7
       7       0.00000637
    ==== End of matrix output ====

 DIIS C vector; C2DIIS = F, LAMBDA = -1.28D-06
   -0.000219   -0.001580    0.011171    0.021835   -0.165866    0.062009    1.072651
* Read MO coefficients from SIRIUS.RST with label "NEWORB  " and header info: 30Dec18  DIIS   7
      Virial theorem: -V/T =      2.002386
@      MULPOP N      -0.61; H       0.20; H       0.21; H       0.22; O      -0.65; O      -0.74; O      -0.58; O      -0.73; H       0.28; H       0.38; 
@             H       0.35; H       0.34; H       0.30; H       0.30; H       0.40; H       0.33; 

 DIIS Fock eigenvalues in symmetry 1
      -20.55205      -20.55028      -20.54428      -20.53259      -15.53266
       -1.33408       -1.33360       -1.32012       -1.30426       -1.14421
       -0.68811       -0.67699       -0.67367       -0.66426       -0.63657
       -0.62230       -0.59502       -0.57361       -0.57118       -0.56144
       -0.51275       -0.50542       -0.49600       -0.49166       -0.43387
        0.13947        0.17717        0.19488        0.20115        0.23242
        0.24369        0.26800        0.29328        0.30312        0.32904
        0.34606        0.48855        0.49979        0.54503        0.56461
        0.59107        0.60456        0.62063        0.62793        0.64524
        0.65187        0.68032        0.88277        0.93216        0.96062
        0.97231        0.98315        1.00394        1.01317        1.01722
        1.06747        1.07832        1.09963        1.11548        1.12701
        1.14197        1.18200        1.26016        1.32039        1.34145
        1.34836        1.36177        1.38708        1.42982        1.47617
        1.48333        1.50518        1.53903        1.55140        1.56246
        1.57775        1.58362        1.67213        1.71174        1.71847
        1.75600        1.81860        1.82796        1.90111        1.93840
        1.96095        2.00213        2.01161        2.04493        2.18367
        2.19465        2.20122        2.21290        2.23199        2.27634
        2.35808        2.41562        2.42785        2.46377        2.57413
        2.62010        2.62255        2.63331        2.65084        2.73249
        2.75425        2.82521        2.84442        2.87790        2.88291
        2.89772        2.99975        3.01821        3.18818        3.44178
        3.45342        3.45600        3.46478        3.47961        3.50430
        3.51765        3.53161        3.53831        3.56349        3.66740
        3.66757        3.66989        3.71722        3.95094        3.96929
        4.00180        4.02739        4.22796        4.23897        4.28176
        4.29154        4.54914        5.18860        5.29420        5.31495
        5.32715        5.34322        5.37948        5.69464        5.76219
        5.78758        5.78941        6.04052        6.05011        6.10568
        6.15207       37.06011       51.50588       51.51619       51.54179
       51.54651
 Time used in FCKEIG, thr_jaco:   2.22D-01  2.20D-02  1.10D-07
 CPU and wall times used in FCKEIG, THR_FCKEIG:   2.22D-01  2.20D-02  2.52D-05
 -----------------------------------------------------------------------------

 *** DIIS iteration number    8
 RDSUPM called. NFMAT, ISYMDM(1:NFMAT)                     1
                     1

 ITDIIS, energy, error norm, change in energy, scr.thr., difden:
@ DIIS iter.   8    -360.761409993        3.50210D-04   -5.93D-07  -20    F

 (DIIS_RED) Control Parameters C2DIIS =         F NEVC =    8


 (DIIS_RED) B matrix:

               Column   1     Column   2     Column   3     Column   4     Column   5     Column   6
       1      14.76393331
       2       0.88193554     0.84106302
       3       0.57561507     0.08219873     0.10468155
       4      -0.00940912     0.07809220    -0.00841995     0.01469987
       5       0.01449366     0.00636867     0.00506667     0.00063817     0.00059781
       6      -0.00213927    -0.00034664     0.00051660     0.00017744     0.00007236     0.00005808
       7       0.00087834    -0.00002088     0.00007467    -0.00000885     0.00003604    -0.00000091
       8       0.00004530    -0.00000681    -0.00000296     0.00000423     0.00000087     0.00000140

               Column   7     Column   8
       7       0.00000637
       8       0.00000023     0.00000012
    ==== End of matrix output ====

 DIIS C vector; C2DIIS = F, LAMBDA = -6.54D-08
    0.000009    0.000069   -0.000917   -0.001720    0.021080   -0.041675   -0.149053    1.172207
* Read MO coefficients from SIRIUS.RST with label "NEWORB  " and header info: 30Dec18  DIIS   8
      Virial theorem: -V/T =      2.002404
@      MULPOP N      -0.61; H       0.20; H       0.21; H       0.22; O      -0.65; O      -0.74; O      -0.58; O      -0.73; H       0.28; H       0.38; 
@             H       0.35; H       0.34; H       0.30; H       0.30; H       0.40; H       0.33; 

 DIIS Fock eigenvalues in symmetry 1
      -20.55210      -20.55026      -20.54425      -20.53261      -15.53269
       -1.33407       -1.33359       -1.32014       -1.30427       -1.14422
       -0.68809       -0.67699       -0.67368       -0.66424       -0.63659
       -0.62232       -0.59503       -0.57362       -0.57121       -0.56145
       -0.51274       -0.50541       -0.49602       -0.49166       -0.43388
        0.13946        0.17717        0.19487        0.20114        0.23241
        0.24369        0.26800        0.29328        0.30312        0.32903
        0.34605        0.48854        0.49979        0.54502        0.56461
        0.59107        0.60455        0.62062        0.62792        0.64524
        0.65187        0.68031        0.88276        0.93215        0.96062
        0.97231        0.98314        1.00394        1.01316        1.01721
        1.06746        1.07832        1.09963        1.11547        1.12701
        1.14197        1.18199        1.26014        1.32037        1.34145
        1.34836        1.36176        1.38708        1.42980        1.47616
        1.48332        1.50518        1.53903        1.55140        1.56245
        1.57775        1.58361        1.67213        1.71174        1.71847
        1.75598        1.81858        1.82796        1.90110        1.93840
        1.96095        2.00212        2.01160        2.04492        2.18366
        2.19464        2.20121        2.21289        2.23199        2.27634
        2.35806        2.41562        2.42785        2.46375        2.57412
        2.62010        2.62254        2.63330        2.65083        2.73247
        2.75424        2.82520        2.84442        2.87789        2.88291
        2.89771        2.99973        3.01819        3.18817        3.44176
        3.45342        3.45600        3.46476        3.47959        3.50428
[...]

 Principal values of diagonalized transition strength matrix:

             a.u.               
 1      -0.00000000
 2       0.00000000
 3       0.00000405

 Principal axis of diagonalized transition strength matrix:


               Column   1     Column   2     Column   3
       1       0.07131204     0.49903466     0.86364287
       2       0.67370242     0.61440527    -0.41064731
       3       0.73555397    -0.61112239     0.29238636
    ==== End of matrix output ====


 CCSD   oscillator strength matrix for state nr. 13 of symmetry 1
 CCSD  excitation energy:15.13160129


               Column   1     Column   2     Column   3
       1     3.046796D-05  -1.448716D-05   1.031476D-05
       2    -1.448716D-05   6.886789D-06  -4.906242D-06
       3     1.031476D-05  -4.906242D-06   3.490300D-06
    ==== End of matrix output ====

 Principal values of diagonalized oscillator strength matrix:

             a.u.               
 1      -0.00000000
 2      -0.00000000
 3       0.00004085

 Principal axis of diagonalized oscillator strength matrix:


               Column   1     Column   2     Column   3
       1       0.07131204     0.49903466     0.86364287
       2       0.67370242     0.61440527    -0.41064731
       3       0.73555397    -0.61112239     0.29238636
    ==== End of matrix output ====


 CCSD  Transition strength matrix for state nr. 14 of symmetry 1
 CCSD  excitation energy:15.21770871

 Gauge: length

               Column   1     Column   2     Column   3
       1     1.944306D-05   2.371207D-05   1.688987D-05
       2     2.371207D-05   2.891648D-05   2.059395D-05
       3     1.688987D-05   2.059395D-05   1.466219D-05
    ==== End of matrix output ====

 Principal values of diagonalized transition strength matrix:

             a.u.               
 1      -0.00000001
 2       0.00000000
 3       0.00006303

 Principal axis of diagonalized transition strength matrix:


               Column   1     Column   2     Column   3
       1      -0.56985007    -0.60560371     0.55544130
       2      -0.11242564     0.72702637     0.67734270
       3       0.81402173    -0.32353794     0.48238142
    ==== End of matrix output ====


 CCSD   oscillator strength matrix for state nr. 14 of symmetry 1
 CCSD  excitation energy:15.21770871


               Column   1     Column   2     Column   3
       1     1.972525D-04   2.405623D-04   1.713501D-04
       2     2.405623D-04   2.933617D-04   2.089285D-04
       3     1.713501D-04   2.089285D-04   1.487499D-04
    ==== End of matrix output ====

 Principal values of diagonalized oscillator strength matrix:

             a.u.               
 1      -0.00000006
 2      -0.00000000
 3       0.00063942

 Principal axis of diagonalized oscillator strength matrix:


               Column   1     Column   2     Column   3
       1      -0.56985007    -0.60560371     0.55544130
       2      -0.11242564     0.72702637     0.67734270
       3       0.81402173    -0.32353794     0.48238142
    ==== End of matrix output ====


 CCSD  Transition strength matrix for state nr. 15 of symmetry 1
 CCSD  excitation energy:15.25980967

 Gauge: length

               Column   1     Column   2     Column   3
       1     1.413692D-06  -1.105959D-06  -1.963885D-05
       2    -1.105959D-06   8.611162D-07   1.532239D-05
       3    -1.963885D-05   1.532239D-05   2.724010D-04
    ==== End of matrix output ====

 Principal values of diagonalized transition strength matrix:

             a.u.               
 1      -0.00000000
 2      -0.00000000
 3       0.00027468

 Principal axis of diagonalized transition strength matrix:


               Column   1     Column   2     Column   3
       1       0.85929086    -0.50642336    -0.07179552
       2       0.51040600     0.85810719     0.05601586
       3       0.03324051    -0.08477878     0.99584518
    ==== End of matrix output ====


 CCSD   oscillator strength matrix for state nr. 15 of symmetry 1
 CCSD  excitation energy:15.25980967


               Column   1     Column   2     Column   3
       1       0.00001438    -0.00001125    -0.00019979
       2      -0.00001125     0.00000876     0.00015588
       3      -0.00019979     0.00015588     0.00277119
    ==== End of matrix output ====

 Principal values of diagonalized oscillator strength matrix:

             a.u.               
 1      -0.00000003
 2       0.00000000
 3       0.00279436

 Principal axis of diagonalized oscillator strength matrix:


               Column   1     Column   2     Column   3
       1       0.85929086    -0.50642336    -0.07179552
       2       0.51040600     0.85810719     0.05601586
       3       0.03324051    -0.08477878     0.99584518
    ==== End of matrix output ====

  Total time for    135 linear response residues:     115.31 seconds.
  

 *******************************************************************************
 *******************************************************************************
 *                                                                             *
 *                                                                             *
 *                   SUMMARY OF COUPLED CLUSTER CALCULATION                    *
 *                                                                             *
 *                                                                             *
 *******************************************************************************
 *******************************************************************************

                                                                                
                                                                                
            Total SCF   energy:                  -360.7614100105                
            Total MP2   energy:                  -361.8617948804                
            Total CCSD  energy:                  -361.9019752361                
                                                                                
                                                                                
            Total SCF   energy:                  -360.7614100105                
            Total RSTAR energy:                  -361.9019752361                
            Total CCSD  energy:                  -361.9021104438                
                                                                                
                                                                                
            Total SCF   energy:                  -360.7614100105                
            Total RSTAR energy:                  -361.9021104438                
            Total CCSD  energy:                  -361.9021117112                
                                                                                
                                                                                
            Total SCF   energy:                  -360.7614100105                
            Total RSTAR energy:                  -361.9021117112                
            Total CCSD  energy:                  -361.9021117918                
                                                                                
                                                                                
            Total SCF   energy:                  -360.7614100105                
            Total RSTAR energy:                  -361.9021117918                
            Total CCSD  energy:                  -361.9021117953                
                                                                                
                                                                                
            Total SCF   energy:                  -360.7614100105                
            Total RSTAR energy:                  -361.9021117953                
            Total CCSD  energy:                  -361.9021117953                
            CCSD Total  energy:                  -362.3051418653                
            CCSD E(QM/MM)     :                    -0.3978673010                
                                                                                
                                                                                
                                                                                
 +=============================================================================+
 |  sym. | Exci.  |        CCSD       Excitation energies            | ||T1||  |
 |(spin, |        +------------------------------------------------------------+
 | spat) |        |     Hartree    |       eV.      |     cm-1       |    %    |
 +=============================================================================+
 | ^1A   |    1   |    14.8116687  |     403.04601  |   3250785.498  |  88.37  |
 | ^1A   |    2   |    14.8753165  |     404.77795  |   3264754.582  |  88.75  |
 | ^1A   |    3   |    14.8954177  |     405.32494  |   3269166.287  |  88.75  |
 | ^1A   |    4   |    14.9532115  |     406.89758  |   3281850.554  |  88.39  |
 | ^1A   |    5   |    14.9852098  |     407.76830  |   3288873.358  |  88.18  |
 | ^1A   |    6   |    14.9990361  |     408.14453  |   3291907.879  |  88.05  |
 | ^1A   |    7   |    15.0239919  |     408.82362  |   3297385.058  |  88.09  |
 | ^1A   |    8   |    15.0493606  |     409.51393  |   3302952.842  |  88.01  |
 | ^1A   |    9   |    15.0800674  |     410.34951  |   3309692.192  |  88.18  |
 | ^1A   |   10   |    15.0929433  |     410.69988  |   3312518.128  |  87.98  |
 | ^1A   |   11   |    15.0973913  |     410.82091  |   3313494.356  |  87.99  |
 | ^1A   |   12   |    15.1176395  |     411.37190  |   3317938.332  |  87.95  |
 | ^1A   |   13   |    15.1316013  |     411.75182  |   3321002.584  |  87.99  |
 | ^1A   |   14   |    15.2177087  |     414.09492  |   3339900.978  |  87.67  |
 | ^1A   |   15   |    15.2598097  |     415.24054  |   3349141.071  |  88.04  |
 +=============================================================================+
                                                                                
                                                                                
     Total energies in Hartree:                                                 
             1 ^1A       -347.0956058642                                        
             2 ^1A       -347.0319580326                                        
             3 ^1A       -347.0118568252                                        
             4 ^1A       -346.9540630521                                        
             5 ^1A       -346.9220648010                                        
             6 ^1A       -346.9082385090                                        
             7 ^1A       -346.8832826452                                        
             8 ^1A       -346.8579139552                                        
             9 ^1A       -346.8272072141                                        
            10 ^1A       -346.8143313039                                        
            11 ^1A       -346.8098832803                                        
            12 ^1A       -346.7896350339                                        
            13 ^1A       -346.7756732776                                        
            14 ^1A       -346.6895658580                                        
            15 ^1A       -346.6474648957                                        
                                                                                
                                                                                
 +=============================================================================+
 |  sym. | Exci.  |        CCSD       Length   Gauge Oscillator Strength       |
 |(spin, |        +------------------------------------------------------------+
 | spat) |        | Dipole Strength(a.u.) | Oscillator strength  | Direction   |
 +=============================================================================+
 | ^1A   |    1   |        0.0009812      |      0.0096890       |  (Y,Z)      |
 | ^1A   |    2   |        0.0034878      |      0.0345879       |  (Y,Z)      |
 | ^1A   |    3   |        0.0030246      |      0.0300349       |  (Y,Z)      |
 | ^1A   |    4   |        0.0014732      |      0.0146861       |  (Y,Z)      |
 | ^1A   |    5   |        0.0006968      |      0.0069613       |  (Y,Z)      |
 | ^1A   |    6   |        0.0004134      |      0.0041335       |  (Y,Z)      |
 | ^1A   |    7   |        0.0001876      |      0.0018786       |  (Y,Z)      |
 | ^1A   |    8   |        0.0001284      |      0.0012884       |  (Y,Z)      |
 | ^1A   |    9   |        0.0007308      |      0.0073472       |  (Y,Z)      |
 | ^1A   |   10   |        0.0000268      |      0.0002696       |  (Y,Z)      |
 | ^1A   |   11   |        0.0000916      |      0.0009218       |  (Y,Z)      |
 | ^1A   |   12   |        0.0000895      |      0.0009024       |  (Y,Z)      |
 | ^1A   |   13   |        0.0000040      |      0.0000408       |  (Y,Z)      |
 | ^1A   |   14   |        0.0000630      |      0.0006394       |  (Y,Z)      |
 | ^1A   |   15   |        0.0002747      |      0.0027943       |  (Y,Z)      |
 +=============================================================================+

  1 a.u. =        27.21138 eV.  
  1 a.u. =    219474.62934 cm-1.
  

 *******************************************************************************
 *******************************************************************************
 *                                                                             *
 *                                                                             *
 *                      END OF COUPLED CLUSTER CALCULATION                     *
 *                                                                             *
 *                                                                             *
 *******************************************************************************
 *******************************************************************************


 CPU and wall time for CC :  554304.315   80853.715

 
     Date and time (Linux)  : Sun Dec 30 23:32:46 2018
     Host name              : n-62-23-14                              


                      .-------------------------------------.
                      | End of Coupled Cluster Section (CC) |
                      `-------------------------------------'

  Total CPU  time used in DALTON: 154 hours 10 minutes 25 seconds
  Total wall time used in DALTON:  22 hours 29 minutes 49 seconds

 
     Date and time (Linux)  : Sun Dec 30 23:32:46 2018
     Host name              : n-62-23-14                              
  

 +---------------------------------------------------------+ 
 | List of selected calculated molecular properties (a.u.) | 
 +---------------------------------------------------------+ 

  Properties are read from unit number                      4

 CCSD       properties :
 #  1 1 CCSD/MM  Ground state Energy =    -362.3051418653
 #  2 1 E_QM/MM  Ground state Energy =      -0.3978673010
 #  3 1 Sy: 1 Sp: 1 Exc:  1 E_tot:   -347.0956058642 w:     14.8116687001 E_grs:   -361.9072745643
 #  4 1 Exctot   Excited state Energy =    -347.0956058642
 #  5 1 Sy: 1 Sp: 1 Exc:  2 E_tot:   -347.0319580326 w:     14.8753165316 E_grs:   -361.9072745643
 #  6 1 Exctot   Excited state Energy =    -347.0319580326
 #  7 1 Sy: 1 Sp: 1 Exc:  3 E_tot:   -347.0118568252 w:     14.8954177390 E_grs:   -361.9072745643
 #  8 1 Exctot   Excited state Energy =    -347.0118568252
 #  9 1 Sy: 1 Sp: 1 Exc:  4 E_tot:   -346.9540630521 w:     14.9532115122 E_grs:   -361.9072745643
 # 10 1 Exctot   Excited state Energy =    -346.9540630521
 # 11 1 Sy: 1 Sp: 1 Exc:  5 E_tot:   -346.9220648010 w:     14.9852097633 E_grs:   -361.9072745643
 # 12 1 Exctot   Excited state Energy =    -346.9220648010
 # 13 1 Sy: 1 Sp: 1 Exc:  6 E_tot:   -346.9082385090 w:     14.9990360553 E_grs:   -361.9072745643
 # 14 1 Exctot   Excited state Energy =    -346.9082385090
 # 15 1 Sy: 1 Sp: 1 Exc:  7 E_tot:   -346.8832826452 w:     15.0239919191 E_grs:   -361.9072745643
 # 16 1 Exctot   Excited state Energy =    -346.8832826452
 # 17 1 Sy: 1 Sp: 1 Exc:  8 E_tot:   -346.8579139552 w:     15.0493606091 E_grs:   -361.9072745643
 # 18 1 Exctot   Excited state Energy =    -346.8579139552
 # 19 1 Sy: 1 Sp: 1 Exc:  9 E_tot:   -346.8272072141 w:     15.0800673501 E_grs:   -361.9072745643
 # 20 1 Exctot   Excited state Energy =    -346.8272072141
 # 21 1 Sy: 1 Sp: 1 Exc: 10 E_tot:   -346.8143313039 w:     15.0929432604 E_grs:   -361.9072745643
 # 22 1 Exctot   Excited state Energy =    -346.8143313039
 # 23 1 Sy: 1 Sp: 1 Exc: 11 E_tot:   -346.8098832803 w:     15.0973912840 E_grs:   -361.9072745643
 # 24 1 Exctot   Excited state Energy =    -346.8098832803
 # 25 1 Sy: 1 Sp: 1 Exc: 12 E_tot:   -346.7896350339 w:     15.1176395304 E_grs:   -361.9072745643
 # 26 1 Exctot   Excited state Energy =    -346.7896350339
 # 27 1 Sy: 1 Sp: 1 Exc: 13 E_tot:   -346.7756732776 w:     15.1316012867 E_grs:   -361.9072745643
 # 28 1 Exctot   Excited state Energy =    -346.7756732776
 # 29 1 Sy: 1 Sp: 1 Exc: 14 E_tot:   -346.6895658580 w:     15.2177087062 E_grs:   -361.9072745643
 # 30 1 Exctot   Excited state Energy =    -346.6895658580
 # 31 1 Sy: 1 Sp: 1 Exc: 15 E_tot:   -346.6474648957 w:     15.2598096685 E_grs:   -361.9072745643
 # 32 1 Exctot   Excited state Energy =    -346.6474648957
 # 33 1 |<O|XDIPLEN |i(14.811669)>| =     0.02446804
 # 35 1 |<O|XDIPLEN |i(14.875317)>| =     0.05129572
 # 37 1 |<O|XDIPLEN |i(14.895418)>| =     0.01224499
 # 39 1 |<O|XDIPLEN |i(14.953212)>| =     0.01468742
 # 41 1 |<O|XDIPLEN |i(14.985210)>| =     0.00248334
 # 43 1 |<O|XDIPLEN |i(14.999036)>| =     0.00232400
 # 45 1 |<O|XDIPLEN |i(15.023992)>| =     0.01325045
 # 47 1 |<O|XDIPLEN |i(15.049361)>| =     0.00127497
 # 49 1 |<O|XDIPLEN |i(15.080067)>| =     0.01060811
 # 51 1 |<O|XDIPLEN |i(15.092943)>| =     0.00213648
 # 53 1 |<O|XDIPLEN |i(15.097391)>| =     0.00267247
 # 55 1 |<O|XDIPLEN |i(15.117640)>| =     0.00803033
 # 57 1 |<O|XDIPLEN |i(15.131601)>| =     0.00173790
 # 59 1 |<O|XDIPLEN |i(15.217709)>| =     0.00440943
 # 61 1 |<O|XDIPLEN |i(15.259810)>| =     0.00118899
 # 63 1 |<O|YDIPLEN |i(14.811669)>| =     0.01478217
 # 65 1 |<O|YDIPLEN |i(14.875317)>| =     0.00373524
 # 67 1 |<O|YDIPLEN |i(14.895418)>| =     0.05310369
 # 69 1 |<O|YDIPLEN |i(14.953212)>| =     0.00581071
 # 71 1 |<O|YDIPLEN |i(14.985210)>| =     0.01773866
 # 73 1 |<O|YDIPLEN |i(14.999036)>| =     0.02019778
 # 75 1 |<O|YDIPLEN |i(15.023992)>| =     0.00327206
 # 77 1 |<O|YDIPLEN |i(15.049361)>| =     0.01030843
 # 79 1 |<O|YDIPLEN |i(15.080067)>| =     0.00658286
 # 81 1 |<O|YDIPLEN |i(15.092943)>| =     0.00281216
 # 83 1 |<O|YDIPLEN |i(15.097391)>| =     0.00817143
 # 85 1 |<O|YDIPLEN |i(15.117640)>| =     0.00046798
 # 87 1 |<O|YDIPLEN |i(15.131601)>| =     0.00082625
 # 89 1 |<O|YDIPLEN |i(15.217709)>| =     0.00537740
 # 91 1 |<O|YDIPLEN |i(15.259810)>| =     0.00092796
 # 93 1 |<O|ZDIPLEN |i(14.811669)>| =     0.01280729
 # 95 1 |<O|ZDIPLEN |i(14.875317)>| =     0.02902729
 # 97 1 |<O|ZDIPLEN |i(14.895418)>| =     0.00739153
 # 99 1 |<O|ZDIPLEN |i(14.953212)>| =     0.03498178
 #101 1 |<O|ZDIPLEN |i(14.985210)>| =     0.01939053
 #103 1 |<O|ZDIPLEN |i(14.999036)>| =     0.00014626
 #105 1 |<O|ZDIPLEN |i(15.023992)>| =     0.00113241
 #107 1 |<O|ZDIPLEN |i(15.049361)>| =     0.00453111
 #109 1 |<O|ZDIPLEN |i(15.080067)>| =     0.02397823
 #111 1 |<O|ZDIPLEN |i(15.092943)>| =     0.00378457
 #113 1 |<O|ZDIPLEN |i(15.097391)>| =     0.00420402
 #115 1 |<O|ZDIPLEN |i(15.117640)>| =     0.00498300
 #117 1 |<O|ZDIPLEN |i(15.131601)>| =     0.00058821
 #119 1 |<O|ZDIPLEN |i(15.217709)>| =     0.00382912
 #121 1 |<O|ZDIPLEN |i(15.259810)>| =     0.01650457

 THE_END   
