

     ************************************************************************
     *************** Dalton - An Electronic Structure Program ***************
     ************************************************************************

    This is output from DALTON release Dalton2017.alpha (2016)
         ( Web site: http://daltonprogram.org )

   ----------------------------------------------------------------------------

    NOTE:
     
    Dalton is an experimental code for the evaluation of molecular
    properties using (MC)SCF, DFT, CI, and CC wave functions.
    The authors accept no responsibility for the performance of
    the code or for the correctness of the results.
     
    The code (in whole or part) is provided under a licence and
    is not to be reproduced for further distribution without
    the written permission of the authors or their representatives.
     
    See the home page "http://daltonprogram.org" for further information.
     
    If results obtained with this code are published,
    the appropriate citations would be both of:
     
       K. Aidas, C. Angeli, K. L. Bak, V. Bakken, R. Bast,
       L. Boman, O. Christiansen, R. Cimiraglia, S. Coriani,
       P. Dahle, E. K. Dalskov, U. Ekstroem,
       T. Enevoldsen, J. J. Eriksen, P. Ettenhuber, B. Fernandez,
       L. Ferrighi, H. Fliegl, L. Frediani, K. Hald, A. Halkier,
       C. Haettig, H. Heiberg, T. Helgaker, A. C. Hennum,
       H. Hettema, E. Hjertenaes, S. Hoest, I.-M. Hoeyvik,
       M. F. Iozzi, B. Jansik, H. J. Aa. Jensen, D. Jonsson,
       P. Joergensen, J. Kauczor, S. Kirpekar,
       T. Kjaergaard, W. Klopper, S. Knecht, R. Kobayashi, H. Koch,
       J. Kongsted, A. Krapp, K. Kristensen, A. Ligabue,
       O. B. Lutnaes, J. I. Melo, K. V. Mikkelsen, R. H. Myhre,
       C. Neiss, C. B. Nielsen, P. Norman, J. Olsen,
       J. M. H. Olsen, A. Osted, M. J. Packer, F. Pawlowski,
       T. B. Pedersen, P. F. Provasi, S. Reine, Z. Rinkevicius,
       T. A. Ruden, K. Ruud, V. Rybkin, P. Salek, C. C. M. Samson,
       A. Sanchez de Meras, T. Saue, S. P. A. Sauer,
       B. Schimmelpfennig, K. Sneskov, A. H. Steindal,
       K. O. Sylvester-Hvid, P. R. Taylor, A. M. Teale,
       E. I. Tellgren, D. P. Tew, A. J. Thorvaldsen, L. Thoegersen,
       O. Vahtras, M. A. Watson, D. J. D. Wilson, M. Ziolkowski
       and H. Agren,
       "The Dalton quantum chemistry program system",
       WIREs Comput. Mol. Sci. 2014, 4:269–284 (doi: 10.1002/wcms.1172)
     
    and
     
       Dalton, a Molecular Electronic Structure Program,
       Release Dalton2017.alpha (2016), see http://daltonprogram.org
   ----------------------------------------------------------------------------

    Authors in alphabetical order (major contribution(s) in parenthesis):

  Kestutis Aidas,           Vilnius University,           Lithuania   (QM/MM)
  Celestino Angeli,         University of Ferrara,        Italy       (NEVPT2)
  Keld L. Bak,              UNI-C,                        Denmark     (AOSOPPA, non-adiabatic coupling, magnetic properties)
  Vebjoern Bakken,          University of Oslo,           Norway      (DALTON; geometry optimizer, symmetry detection)
  Radovan Bast,             UiT The Arctic U. of Norway,  Norway      (DALTON installation and execution frameworks)
  Pablo Baudin,             University of Valencia,       Spain       (Cholesky excitation energies)
  Linus Boman,              NTNU,                         Norway      (Cholesky decomposition and subsystems)
  Ove Christiansen,         Aarhus University,            Denmark     (CC module)
  Renzo Cimiraglia,         University of Ferrara,        Italy       (NEVPT2)
  Sonia Coriani,            University of Trieste,        Italy       (CC module, MCD in RESPONS)
  Janusz Cukras,            University of Trieste,        Italy       (MChD in RESPONS)
  Paal Dahle,               University of Oslo,           Norway      (Parallelization)
  Erik K. Dalskov,          UNI-C,                        Denmark     (SOPPA)
  Thomas Enevoldsen,        Univ. of Southern Denmark,    Denmark     (SOPPA)
  Janus J. Eriksen,         Aarhus University,            Denmark     (Polarizable embedding model, TDA)
  Rasmus Faber,             University of Copenhagen,     Denmark     (Vib.avg. NMR with SOPPA, parallel AO-SOPPA)
  Berta Fernandez,          U. of Santiago de Compostela, Spain       (doublet spin, ESR in RESPONS)
  Lara Ferrighi,            Aarhus University,            Denmark     (PCM Cubic response)
  Heike Fliegl,             University of Oslo,           Norway      (CCSD(R12))
  Luca Frediani,            UiT The Arctic U. of Norway,  Norway      (PCM)
  Bin Gao,                  UiT The Arctic U. of Norway,  Norway      (Gen1Int library)
  Christof Haettig,         Ruhr-University Bochum,       Germany     (CC module)
  Kasper Hald,              Aarhus University,            Denmark     (CC module)
  Asger Halkier,            Aarhus University,            Denmark     (CC module)
  Frederik Beyer Hansen,    University of Copenhagen,     Denmark     (Parallel AO-SOPPA)
  Erik D. Hedegaard,        Univ. of Southern Denmark,    Denmark     (Polarizable embedding model, QM/MM)
  Hanne Heiberg,            University of Oslo,           Norway      (geometry analysis, selected one-electron integrals)
  Trygve Helgaker,          University of Oslo,           Norway      (DALTON; ABACUS, ERI, DFT modules, London, and much more)
  Alf Christian Hennum,     University of Oslo,           Norway      (Parity violation)
  Hinne Hettema,            University of Auckland,       New Zealand (quadratic response in RESPONS; SIRIUS supersymmetry)
  Eirik Hjertenaes,         NTNU,                         Norway      (Cholesky decomposition)
  Pi A. B. Haase,           University of Copenhagen,     Denmark     (Triplet AO-SOPPA)
  Maria Francesca Iozzi,    University of Oslo,           Norway      (RPA)
  Brano Jansik              Technical Univ. of Ostrava    Czech Rep.  (DFT cubic response)
  Hans Joergen Aa. Jensen,  Univ. of Southern Denmark,    Denmark     (DALTON; SIRIUS, RESPONS, ABACUS modules, London, and much more)
  Dan Jonsson,              UiT The Arctic U. of Norway,  Norway      (cubic response in RESPONS module)
  Poul Joergensen,          Aarhus University,            Denmark     (RESPONS, ABACUS, and CC modules)
  Maciej Kaminski,          University of Warsaw,         Poland      (CPPh in RESPONS)
  Joanna Kauczor,           Linkoeping University,        Sweden      (Complex polarization propagator (CPP) module)
  Sheela Kirpekar,          Univ. of Southern Denmark,    Denmark     (Mass-velocity & Darwin integrals)
  Wim Klopper,              KIT Karlsruhe,                Germany     (R12 code in CC, SIRIUS, and ABACUS modules)
  Stefan Knecht,            ETH Zurich,                   Switzerland (Parallel CI and MCSCF)
  Rika Kobayashi,           Australian National Univ.,    Australia   (DIIS in CC, London in MCSCF)
  Henrik Koch,              NTNU,                         Norway      (CC module, Cholesky decomposition)
  Jacob Kongsted,           Univ. of Southern Denmark,    Denmark     (Polarizable embedding model, QM/MM)
  Andrea Ligabue,           University of Modena,         Italy       (CTOCD, AOSOPPA)
  Nanna H. List             Univ. of Southern Denmark,    Denmark     (Polarizable embedding model)
  Ola B. Lutnaes,           University of Oslo,           Norway      (DFT Hessian)
  Juan I. Melo,             University of Buenos Aires,   Argentina   (LRESC, Relativistic Effects on NMR Shieldings)
  Kurt V. Mikkelsen,        University of Copenhagen,     Denmark     (MC-SCRF and QM/MM)
  Rolf H. Myhre,            NTNU,                         Norway      (Cholesky, subsystems and ECC2)
  Christian Neiss,          Univ. Erlangen-Nuernberg,     Germany     (CCSD(R12))
  Christian B. Nielsen,     University of Copenhagen,     Denmark     (QM/MM)
  Patrick Norman,           Linkoeping University,        Sweden      (Cubic response and complex frequency response in RESPONS)
  Jeppe Olsen,              Aarhus University,            Denmark     (SIRIUS CI/density modules)
  Jogvan Magnus H. Olsen,   Univ. of Southern Denmark,    Denmark     (Polarizable embedding model, QM/MM)
  Anders Osted,             Copenhagen University,        Denmark     (QM/MM)
  Martin J. Packer,         University of Sheffield,      UK          (SOPPA)
  Filip Pawlowski,          Kazimierz Wielki University,  Poland      (CC3)
  Morten N. Pedersen,       Univ. of Southern Denmark,    Denmark     (Polarizable embedding model)
  Thomas B. Pedersen,       University of Oslo,           Norway      (Cholesky decomposition)
  Patricio F. Provasi,      University of Northeastern,   Argentina   (Analysis of coupling constants in localized orbitals)
  Zilvinas Rinkevicius,     KTH Stockholm,                Sweden      (open-shell DFT, ESR)
  Elias Rudberg,            KTH Stockholm,                Sweden      (DFT grid and basis info)
  Torgeir A. Ruden,         University of Oslo,           Norway      (Numerical derivatives in ABACUS)
  Kenneth Ruud,             UiT The Arctic U. of Norway,  Norway      (DALTON; ABACUS magnetic properties and much more)
  Pawel Salek,              KTH Stockholm,                Sweden      (DALTON; DFT code)
  Claire C. M. Samson       University of Karlsruhe       Germany     (Boys localization, r12 integrals in ERI)
  Alfredo Sanchez de Meras, University of Valencia,       Spain       (CC module, Cholesky decomposition)
  Trond Saue,               Paul Sabatier University,     France      (direct Fock matrix construction)
  Stephan P. A. Sauer,      University of Copenhagen,     Denmark     (SOPPA(CCSD), SOPPA prop., AOSOPPA, vibrational g-factors)
  Bernd Schimmelpfennig,    Forschungszentrum Karlsruhe,  Germany     (AMFI module)
  Kristian Sneskov,         Aarhus University,            Denmark     (Polarizable embedding model, QM/MM)
  Arnfinn H. Steindal,      UiT The Arctic U. of Norway,  Norway      (parallel QM/MM, Polarizable embedding model)
  Casper Steinmann,         Univ. of Southern Denmark,    Denmark     (QFIT, Polarizable embedding model)
  K. O. Sylvester-Hvid,     University of Copenhagen,     Denmark     (MC-SCRF)
  Peter R. Taylor,          VLSCI/Univ. of Melbourne,     Australia   (Symmetry handling ABACUS, integral transformation)
  Andrew M. Teale,          University of Nottingham,     England     (DFT-AC, DFT-D)
  David P. Tew,             University of Bristol,        England     (CCSD(R12))
  Olav Vahtras,             KTH Stockholm,                Sweden      (triplet response, spin-orbit, ESR, TDDFT, open-shell DFT)
  David J. Wilson,          La Trobe University,          Australia   (DFT Hessian and DFT magnetizabilities)
  Hans Agren,               KTH Stockholm,                Sweden      (SIRIUS module, RESPONS, MC-SCRF solvation model)
 --------------------------------------------------------------------------------

     Date and time (Linux)  : Wed Jan  2 21:20:13 2019
     Host name              : n-62-23-32                              

 * Work memory size             :  1280000000 =  9.537 gigabytes.

 * Directories for basis set searches:
   1) /zhome/37/3/129401/NH3NH4/CCSD/AIMD_SAMPLING/nh3_4h2o_nd
   2) /zhome/9a/4/124800/source/dalton/build-mlcc/basis


Compilation information
-----------------------

 Who compiled             | rfaber
 Host                     | hpclogin1
 System                   | Linux-2.6.32-696.1.1.el6.x86_64
 CMake generator          | Unix Makefiles
 Processor                | x86_64
 64-bit integers          | ON
 MPI                      | OFF
 Fortran compiler         | /opt/intel/2016update2/compilers_and_libraries_201
                          | 6.2.181/linux/bin/intel64/ifort
 Fortran compiler version | ifort (IFORT) 16.0.2 20160204
 C compiler               | /opt/intel/2016update2/compilers_and_libraries_201
                          | 6.2.181/linux/bin/intel64/icc
 C compiler version       | icc (ICC) 16.0.2 20160204
 C++ compiler             | /opt/intel/2016update2/compilers_and_libraries_201
                          | 6.2.181/linux/bin/intel64/icpc
 C++ compiler version     | icpc (ICC) 16.0.2 20160204
 Static linking           | OFF
 Last Git revision        | bb4d1599ca5680a9f3980451fc8bbefdba436d59
 Git branch               | mlcc
 Configuration time       | 2017-06-13 16:11:03.928841


   Content of the .dal input file
 ----------------------------------

**DALTON
.RUN WAVE FUNCTIONS
*QMMM
.QMMM
**INTEGRALS
.DIPLEN
**WAVE FUNCTIONS
.CC
*PRINT
!To check the origin of excit
.PRINTL
   0 11
*SCF INP
.THRESH
1.0D-7
*CC INP
.CCSD
.THRLEQ
 1.0D-9
.THRENR
 1.0D-10
.FROIMP
4
0
.PRINT
 1
.MAX IT
 1200
.MAXRED
 1200
.MXLRV
1199
*CCSLV
.CCMM
.MXSLIT
200
.MXINIT
4 5
*CCEXCI
.NCCEXC
 15
.CVSEPARA
1
1
*CCLRSD
.DIPOLE
**END OF DALTON INPUT


   Content of the .mol file
 ----------------------------

ATOMBASIS


Atomtypes=4 Charge=0 Nosymm Angstrom
   7.00000    1    Basis=6-311G**
N          0.000000        0.000000        0.000000
   1.00000    3    Basis=6-311G**
H         -0.401077       -0.989482       -0.044986
H         -0.291163        0.428828        0.899779
H         -0.565797        0.518776       -0.721455
   8.00000    4    Basis=6-311G**
O         -0.865878       -2.806639        1.818221
O         -2.902914        0.837346       -0.258072
O          2.450600        0.182045       -1.042377
O         -0.324559        2.234073        2.174967
   1.00000    8    Basis=6-311G**
H         -0.125029       -3.022971        1.187666
H         -0.654550       -2.178280        2.496263
H         -2.764278        0.937231       -1.244882
H         -3.409727        1.619566        0.068854
H          2.945612        0.440385       -0.243669
H          1.461052       -0.036269       -0.605188
H         -0.793046        2.842385        2.739019
H          0.629126        2.456845        2.388462


       *******************************************************************
       *********** Output from DALTON general input processing ***********
       *******************************************************************

 --------------------------------------------------------------------------------
   Overall default print level:    0
   Print level for DALTON.STAT:    1

    HERMIT 1- and 2-electron integral sections will be executed
    "Old" integral transformation used (limited to max 255 basis functions)
    Wave function sections will be executed (SIRIUS module)
 --------------------------------------------------------------------------------


 Changes of defaults for *QMMM  :
 --------------------------------

 +------------------+
 |  WORD: | CHANGE: |
 +------------------+
 |   QMMM |       T |
 +------------------+
 


   ****************************************************************************
   *************** Output of molecule and basis set information ***************
   ****************************************************************************


    The two title cards from your ".mol" input:
    ------------------------------------------------------------------------
 1:                                                                         
 2:                                                                         
    ------------------------------------------------------------------------

  Coordinates are entered in Angstrom and converted to atomic units.
          - Conversion factor : 1 bohr = 0.52917721 A

  Atomic type no.    1
  --------------------
  Nuclear charge:   7.00000
  Number of symmetry independent centers:    1
  Number of basis sets to read;    2
  The basis set is "6-311G**" from the basis set library.
  Basis set file used for this atomic type with Z =   7 :
     "/zhome/9a/4/124800/source/dalton/build-mlcc/basis/6-311G**"

  Info about the basis set file: your basis has no documentation.
  Basis set: 6-311G**                                                                        

  Atomic type no.    2
  --------------------
  Nuclear charge:   1.00000
  Number of symmetry independent centers:    3
  Number of basis sets to read;    2
  The basis set is "6-311G**" from the basis set library.
  Basis set file used for this atomic type with Z =   1 :
     "/zhome/9a/4/124800/source/dalton/build-mlcc/basis/6-311G**"

  Info about the basis set file: your basis has no documentation.
  Basis set: 6-311G**                                                                        

  Atomic type no.    3
  --------------------
  Nuclear charge:   8.00000
  Number of symmetry independent centers:    4
  Number of basis sets to read;    2
  The basis set is "6-311G**" from the basis set library.
  Basis set file used for this atomic type with Z =   8 :
     "/zhome/9a/4/124800/source/dalton/build-mlcc/basis/6-311G**"

  Info about the basis set file: your basis has no documentation.
  Basis set: 6-311G**                                                                        

  Atomic type no.    4
  --------------------
  Nuclear charge:   1.00000
  Number of symmetry independent centers:    8
  Number of basis sets to read;    2
  The basis set is "6-311G**" from the basis set library.
  Basis set file used for this atomic type with Z =   1 :
     "/zhome/9a/4/124800/source/dalton/build-mlcc/basis/6-311G**"

  Info about the basis set file: your basis has no documentation.
  Basis set: 6-311G**                                                                        


                         SYMGRP: Point group information
                         -------------------------------

@    Point group: C1 


                                 Isotopic Masses
                                 ---------------

                           N          14.003074
                           H           1.007825
                           H           1.007825
                           H           1.007825
                           O          15.994915
                           O          15.994915
                           O          15.994915
                           O          15.994915
                           H           1.007825
                           H           1.007825
                           H           1.007825
                           H           1.007825
                           H           1.007825
                           H           1.007825
                           H           1.007825
                           H           1.007825

                       Total mass:    89.068809 amu
                       Natural abundance:  98.514 %

 Center-of-mass coordinates (a.u.):   -0.642341    0.216144    1.061760


  Atoms and basis sets
  --------------------

  Number of atom types :    4
  Total number of atoms:   16

  label    atoms   charge   prim   cont     basis
  ----------------------------------------------------------------------
  N           1    7.0000    31    18      [11s5p1d|4s3p1d]                                   
  H           3    1.0000     8     6      [5s1p|3s1p]                                        
  O           4    8.0000    31    18      [11s5p1d|4s3p1d]                                   
  H           8    1.0000     8     6      [5s1p|3s1p]                                        
  ----------------------------------------------------------------------
  total:     16   50.0000   243   156
  ----------------------------------------------------------------------
  Spherical harmonic basis used.

  Threshold for neglecting AO integrals:  1.00D-12


  Cartesian Coordinates (a.u.)
  ----------------------------

  Total number of coordinates:   48
  N       :     1  x   0.0000000000    2  y   0.0000000000    3  z   0.0000000000
  H       :     4  x  -0.7579256850    5  y  -1.8698499856    6  z  -0.0850112195
  H       :     7  x  -0.5502183277    8  y   0.8103674747    9  z   1.7003358830
  H       :    10  x  -1.0692013723   11  y   0.9803445602   12  z  -1.3633523615
  O       :    13  x  -1.6362722777   14  y  -5.3037790417   15  z   3.4359397247
  O       :    16  x  -5.4857124244   17  y   1.5823546119   18  z  -0.4876854005
  O       :    19  x   4.6309628419   20  y   0.3440151924   21  z  -1.9698070490
  O       :    22  x  -0.6133276214   23  y   4.2217861132   24  z   4.1100919609
  H       :    25  x  -0.2362705677   26  y  -5.7125872738   27  z   2.2443634680
  H       :    28  x  -1.2369202351   29  y  -4.1163526236   30  z   4.7172534060
  H       :    31  x  -5.2237283533   32  y   1.7711099059   33  z  -2.3524860379
  H       :    34  x  -6.4434501910   35  y   3.0605361814   36  z   0.1301152026
  H       :    37  x   5.5663999505   38  y   0.8322070396   39  z  -0.4604676752
  H       :    40  x   2.7609881344   41  y  -0.0685384768   42  z  -1.1436395741
  H       :    43  x  -1.4986397445   44  y   5.3713291918   45  z   5.1759957612
  H       :    46  x   1.1888758381   47  y   4.6427641816   48  z   4.5135390400


   Interatomic separations (in Angstrom):
   --------------------------------------

            N           H           H           H           O           O     
            ------      ------      ------      ------      ------      ------
 N     :    0.000000
 H     :    1.068626    0.000000
 H     :    1.038399    1.707708    0.000000
 H     :    1.053448    1.661200    1.646789    0.000000
 O     :    3.454402    2.643793    3.412049    4.195043    0.000000
 O     :    3.032270    3.105140    2.885957    2.403815    4.662525    0.000000
 O     :    2.669294    3.240266    3.368996    3.052053    5.302290    5.450199
 O     :    3.134789    3.914761    2.210459    3.374863    5.082231    3.810307
 H     :    3.250313    2.393890    3.467765    4.047591    0.996622    4.970800
 H     :    3.377080    2.816991    3.078607    4.199488    0.948280    4.662135
 H     :    3.173226    3.276689    3.312754    2.298347    5.196449    1.001494
 H     :    3.775443    3.983976    3.440020    3.150280    5.396549    0.987729
 H     :    2.988301    3.644766    3.432830    3.544632    5.414980    5.862000
 H     :    1.581847    2.165633    2.356162    2.104688    4.354591    4.464067
 H     :    4.026202    4.752634    3.075703    4.174408    5.724041    4.177832
 H     :    3.483768    4.342828    2.678799    3.854288    5.501316    4.701300

            O           O           H           H           H           H     
            ------      ------      ------      ------      ------      ------
 O     :    0.000000
 O     :    4.718435    0.000000
 H     :    4.677508    5.352671    0.000000
 H     :    5.266409    4.436326    1.645090    0.000000
 H     :    5.273165    4.396521    5.344729    5.305990    0.000000
 H     :    6.135530    3.785709    5.796044    5.282703    1.614958    0.000000
 H     :    0.974531    4.445350    4.844831    5.227409    5.818258    6.471358
 H     :    1.103631    4.009005    3.827580    4.322381    4.382958    5.188508
 H     :    5.647796    0.952721    6.103716    5.028438    4.835994    3.933457
 H     :    4.501460    1.002358    5.660304    4.810803    5.198616    4.732225

            H           H           H           H     
            ------      ------      ------      ------
 H     :    0.000000
 H     :    1.600567    0.000000
 H     :    5.351971    4.954930    0.000000
 H     :    4.044791    3.983674    1.514630    0.000000


  Max    interatomic separation is    6.4714 Angstrom (   12.2291 Bohr)
  between atoms   13 and   12, "H     " and "H     ".

  Min HX interatomic separation is    0.9483 Angstrom (    1.7920 Bohr)

  Min YX interatomic separation is    2.6693 Angstrom (    5.0442 Bohr)


  Bond distances (Angstrom):
  --------------------------

                  atom 1     atom 2       distance
                  ------     ------       --------
  bond distance:  H          N            1.068626
  bond distance:  H          N            1.038399
  bond distance:  H          N            1.053448
  bond distance:  H          O            0.996622
  bond distance:  H          O            0.948280
  bond distance:  H          O            1.001494
  bond distance:  H          O            0.987729
  bond distance:  H          O            0.974531
  bond distance:  H          O            1.103631
  bond distance:  H          O            0.952721
  bond distance:  H          O            1.002358


  Bond angles (degrees):
  ----------------------

                  atom 1     atom 2     atom 3         angle
                  ------     ------     ------         -----
  bond angle:     H          N          H            108.278
  bond angle:     H          N          H            103.037
  bond angle:     H          N          H            103.855
  bond angle:     H          O          H            115.503
  bond angle:     H          O          H            108.553
  bond angle:     H          O          H            100.557
  bond angle:     H          O          H            101.528




 Principal moments of inertia (u*A**2) and principal axes
 --------------------------------------------------------

   IA     375.737713          0.943855   -0.070843   -0.322674
   IB     408.390080          0.030313    0.991188   -0.128946
   IC     535.086035          0.328966    0.111925    0.937686


 Rotational constants
 --------------------

               A                   B                   C

           1345.0314           1237.4909            944.4818 MHz
            0.044865            0.041278            0.031505 cm-1


@  Nuclear repulsion energy :  182.539616181288 Hartree


                     .---------------------------------------.
                     | Starting in Integral Section (HERMIT) |
                     `---------------------------------------'



 ***************************************************************************************
 ****************** Output from **INTEGRALS input processing (HERMIT) ******************
 ***************************************************************************************



    *************************************************************************
    ****************** Output from HERMIT input processing ******************
    *************************************************************************


 Default print level:        1

 * Nuclear model: Point charge

 Calculation of one- and two-electron Hamiltonian integrals.

 The following one-electron property integrals are calculated as requested:
          - overlap integrals
          - dipole length integrals

 Center of mass  (bohr):     -0.642341415503      0.216143896572      1.061760275721
 Operator center (bohr):      0.000000000000      0.000000000000      0.000000000000
 Gauge origin    (bohr):      0.000000000000      0.000000000000      0.000000000000
 Dipole origin   (bohr):      0.000000000000      0.000000000000      0.000000000000
 
  *********************************** 
  QMMM electrostatic potential: 
  Multipole order                                    0
  Isotropic polarization  
  *********************************** 
 
  ---------------- 
  QMMM information 
  ---------------- 
 
  MM coordinates in au 
  -------------------- 
     1     -6.691849      3.975339      9.768951
     2     -7.870736      3.153940      8.619392
     3     -7.810873      5.353269     10.605309
     4     -2.516210    -10.786277      3.236082
     5     -1.194828    -11.517764      4.300302
     6     -2.174646     -8.956331      3.473148
     7     -1.857605      1.160460     11.532112
     8     -0.923405      0.450411     10.139343
     9     -0.760486      0.845938     12.875587
    10     -3.407465      7.084521      6.972840
    11     -4.663974      5.865776      7.912264
    12     -4.207477      8.680716      7.022262
    13     10.831030     -0.042696     -0.468815
    14     11.422402      1.400368     -1.543485
    15     11.132847     -1.537483     -1.514644
    16     -8.473328      3.917565     -7.413573
    17     -6.715093      3.418469     -6.740012
    18     -8.953995      2.262949     -8.283875
    19      6.441080    -11.255519     11.624565
    20      4.959367    -10.232172     12.185050
    21      6.588640    -10.602494      9.894134
    22     -8.289941     -8.267299     11.513444
    23     -9.070060     -6.585078     11.018713
    24     -9.769374     -9.098389     12.341622
    25      1.050159      0.573779     -8.256964
    26      1.929301      2.032652     -7.453911
    27      0.919116     -0.623742     -6.900558
    28      1.101582     -3.581477     -4.875801
    29      0.073076     -4.187750     -6.334458
    30      2.630714     -4.649390     -5.232534
    31     11.080836     -8.772383     -0.502002
    32     12.514949     -8.190183     -1.535646
    33      9.840267     -9.891108     -1.397806
    34      2.479563      4.291247     -4.948516
    35      3.817147      5.297770     -5.618592
    36      3.409427      3.153017     -3.694460
    37     -5.589768     10.162807      0.541469
    38     -4.501658     11.262343      1.552038
    39     -5.140639     10.176721     -1.291031
    40    -10.218108      3.745736      5.308205
    41    -10.971160      5.037878      6.503029
    42    -11.679418      2.706037      4.899739
    43    -11.733349     -3.195396     -4.511615
    44    -13.434375     -3.839143     -4.490783
    45    -10.442636     -4.375708     -3.909772
    46     -1.889702     -9.951557     10.280685
    47     -1.312318    -10.723701      8.817360
    48     -3.085923    -11.123060     10.970293
    49     -8.634852      5.724742      0.938041
    50     -7.937109      7.384505      0.859504
    51     -9.197964      5.533281      2.771121
    52      2.810306     -8.018975    -11.375686
    53      2.860741     -6.099951    -11.390131
    54      1.029226     -8.304681    -11.609404
    55      6.161567    -10.381220      6.582067
    56      7.470671    -11.487203      5.572782
    57      6.199880     -8.772976      5.621820
    58     -8.427950     -5.916158      4.750630
    59     -7.750802     -4.886849      3.304589
    60     -8.775837     -7.677615      4.308217
    61      6.993941      4.768259     11.141670
    62      6.144830      5.818845     12.382011
    63      7.798437      3.421190     12.402161
    64     -8.468511     10.608939      8.379955
    65     -8.660532     11.318350      6.685503
    66     -8.156742     12.263160      9.269260
    67      9.378297      9.503633      4.418355
    68     10.942722     10.166056      3.807322
    69      9.715700      8.888217      6.141052
    70      5.500260     -1.765509      5.632763
    71      6.152141     -2.014030      7.378515
    72      6.547391     -0.476009      4.772031
    73      1.613008    -11.698102     -5.274481
    74      2.239059    -13.059733     -6.445780
    75      2.187949    -12.404017     -3.533735
    76      6.972640     -2.023853     -5.491533
    77      5.753729     -2.310438     -6.909222
    78      5.932831     -1.218614     -4.109283
    79     -5.818195     -3.370523      1.060866
    80     -4.173557     -3.767492      1.900214
    81     -5.860978     -1.520321      0.656419
    82     10.502659      7.371481      8.607113
    83      9.366418      6.746831      9.896560
    84     11.888709      8.278788      9.374633
    85      8.029025      1.933987      3.069172
    86      7.131125      3.484269      2.438297
    87      9.226573      1.489845      1.688238
    88      8.987245      1.129933     -9.338760
    89     10.734122      0.565351     -9.287303
    90      8.197018      0.181446     -7.840595
    91      4.658264     -7.495863     -6.193371
    92      4.683323     -6.738977     -7.905747
    93      3.397125     -8.862387     -6.451778
    94     -8.812768      7.905218    -10.456915
    95     -8.677424      6.504042     -9.192244
    96    -10.100452      9.160119     -9.844181
    97    -11.444380      4.392079     -3.150935
    98    -10.094720      4.282443     -4.412002
    99    -10.627190      5.200371     -1.670386
   100     11.257253     11.423812     -9.469410
   101      9.904062     11.872210    -10.580784
   102     10.798354     12.012118     -7.837127
   103      1.666587     -7.232554     -0.268849
   104      3.378604     -6.694334      0.403423
   105      1.494297     -6.596828     -1.979838
   106      3.724457     -3.033103    -10.417145
   107      5.282930     -2.606101    -11.330569
   108      2.861215     -1.480718     -9.884458
   109     -8.094037     -6.161280     -2.574364
   110     -7.022731     -5.211744     -1.323713
   111     -7.031626     -6.530865     -3.936362
   112      4.044159      8.009755     -9.389082
   113      5.161503      9.470816    -10.096584
   114      2.652087      7.933722    -10.652123
   115     -1.589755      6.293810     -0.471942
   116     -1.371346      5.258685      1.158258
   117     -3.160805      7.218913     -0.247923
   118     -3.387064     11.376121     -5.211521
   119     -3.671917     10.484699     -6.833010
   120     -1.448794     11.542940     -5.321110
   121      8.708948    -11.231130     -4.839326
   122      7.996813    -12.961099     -4.874471
   123      7.413925    -10.011040     -5.190082
   124     -3.509545      3.616418     -5.455078
   125     -2.674108      4.755817     -4.210901
   126     -2.059369      2.566482     -6.036269
   127      5.821492      6.714703      1.816365
   128      4.653345      8.097076      1.104549
   129      7.132686      7.703710      2.736694
   130      8.116387     -2.118914     10.302921
   131      9.527833     -3.329344     10.481602
   132      8.378084     -0.719209     11.489765
   133     -9.805708    -11.738353      2.795784
   134     -8.471627    -12.533922      1.560254
   135    -10.738830    -10.652991      1.491570
   136      3.289356      6.216728      6.665622
   137      4.490696      6.516596      5.099670
   138      4.265739      5.372527      7.898503
   139    -10.181567     -0.902305     -8.967841
   140    -10.730804     -1.864275     -7.424095
   141     -8.407082     -1.447551     -9.541618
   142      0.055178     -0.640509      6.554158
   143     -0.122972      0.916761      5.604843
   144      1.815416     -1.126742      6.256458
   145      7.345987      7.373488     -3.790175
   146      6.500210      7.115650     -2.171581
   147      8.953762      6.414517     -3.511039
   148     -4.228829      9.844335    -10.271878
   149     -3.210286      8.369058    -10.808222
   150     -6.047821      9.353071    -10.258465
   151      2.164275      9.853935     -0.462987
   152      0.605226      8.783381     -0.227034
   153      2.017562     11.500231      0.359704
   154     -1.586748     -4.673614     -9.370277
   155     -2.537435     -3.150538    -10.019592
   156     -3.075544     -5.747094     -8.690777
   157    -10.059594     -4.230730      9.420668
   158     -9.033344     -2.883416     10.093141
   159     -9.698320     -4.398090      7.573998
   160      6.033321     -6.170564      2.687404
   161      5.590367     -4.691504      3.819055
   162      7.558657     -5.659769      1.741415
   163      1.189273     10.981166      6.358057
   164      1.486358      9.130720      6.868200
   165      2.885336     11.748849      6.461306
   166     -0.444808      6.268138     11.264351
   167     -1.023170      4.462875     11.265789
   168     -0.987125      6.796024      9.581730
   169     -4.034679     -5.480710      8.428893
   170     -5.582612     -5.875164      7.406375
   171     -3.513044     -7.070316      9.360269
   172     -6.156482     -1.704794     11.726168
   173     -5.280316     -3.118942     10.766939
   174     -5.204534     -0.178957     11.310241
   175     -5.486325     -7.388852     -6.932360
   176     -4.792892     -8.990877     -6.352398
   177     -6.646346     -7.724685     -8.327970
 
  MM charges 
  ---------- 
     1     -0.674440
     2      0.337220
     3      0.337220
     4     -0.674440
     5      0.337220
     6      0.337220
     7     -0.674440
     8      0.337220
     9      0.337220
    10     -0.674440
    11      0.337220
    12      0.337220
    13     -0.674440
    14      0.337220
    15      0.337220
    16     -0.674440
    17      0.337220
    18      0.337220
    19     -0.674440
    20      0.337220
    21      0.337220
    22     -0.674440
    23      0.337220
    24      0.337220
    25     -0.674440
    26      0.337220
    27      0.337220
    28     -0.674440
    29      0.337220
    30      0.337220
    31     -0.674440
    32      0.337220
    33      0.337220
    34     -0.674440
    35      0.337220
    36      0.337220
    37     -0.674440
    38      0.337220
    39      0.337220
    40     -0.674440
    41      0.337220
    42      0.337220
    43     -0.674440
    44      0.337220
    45      0.337220
    46     -0.674440
    47      0.337220
    48      0.337220
    49     -0.674440
    50      0.337220
    51      0.337220
    52     -0.674440
    53      0.337220
    54      0.337220
    55     -0.674440
    56      0.337220
    57      0.337220
    58     -0.674440
    59      0.337220
    60      0.337220
    61     -0.674440
    62      0.337220
    63      0.337220
    64     -0.674440
    65      0.337220
    66      0.337220
    67     -0.674440
    68      0.337220
    69      0.337220
    70     -0.674440
    71      0.337220
    72      0.337220
    73     -0.674440
    74      0.337220
    75      0.337220
    76     -0.674440
    77      0.337220
    78      0.337220
    79     -0.674440
    80      0.337220
    81      0.337220
    82     -0.674440
    83      0.337220
    84      0.337220
    85     -0.674440
    86      0.337220
    87      0.337220
    88     -0.674440
    89      0.337220
    90      0.337220
    91     -0.674440
    92      0.337220
    93      0.337220
    94     -0.674440
    95      0.337220
    96      0.337220
    97     -0.674440
    98      0.337220
    99      0.337220
   100     -0.674440
   101      0.337220
   102      0.337220
   103     -0.674440
   104      0.337220
   105      0.337220
   106     -0.674440
   107      0.337220
   108      0.337220
   109     -0.674440
   110      0.337220
   111      0.337220
   112     -0.674440
   113      0.337220
   114      0.337220
   115     -0.674440
   116      0.337220
   117      0.337220
   118     -0.674440
   119      0.337220
   120      0.337220
   121     -0.674440
   122      0.337220
   123      0.337220
   124     -0.674440
   125      0.337220
   126      0.337220
   127     -0.674440
   128      0.337220
   129      0.337220
   130     -0.674440
   131      0.337220
   132      0.337220
   133     -0.674440
   134      0.337220
   135      0.337220
   136     -0.674440
   137      0.337220
   138      0.337220
   139     -0.674440
   140      0.337220
   141      0.337220
   142     -0.674440
   143      0.337220
   144      0.337220
   145     -0.674440
   146      0.337220
   147      0.337220
   148     -0.674440
   149      0.337220
   150      0.337220
   151     -0.674440
   152      0.337220
   153      0.337220
   154     -0.674440
   155      0.337220
   156      0.337220
   157     -0.674440
   158      0.337220
   159      0.337220
   160     -0.674440
   161      0.337220
   162      0.337220
   163     -0.674440
   164      0.337220
   165      0.337220
   166     -0.674440
   167      0.337220
   168      0.337220
   169     -0.674440
   170      0.337220
   171      0.337220
   172     -0.674440
   173      0.337220
   174      0.337220
   175     -0.674440
   176      0.337220
   177      0.337220
 
  MM isotropic polarizabilities in au 
  ----------------------------------- 
     1      5.739350
     2      2.308390
     3      2.308390
     4      5.739350
     5      2.308390
     6      2.308390
     7      5.739350
     8      2.308390
     9      2.308390
    10      5.739350
    11      2.308390
    12      2.308390
    13      5.739350
    14      2.308390
    15      2.308390
    16      5.739350
    17      2.308390
    18      2.308390
    19      5.739350
    20      2.308390
    21      2.308390
    22      5.739350
    23      2.308390
    24      2.308390
    25      5.739350
    26      2.308390
    27      2.308390
    28      5.739350
    29      2.308390
    30      2.308390
    31      5.739350
    32      2.308390
    33      2.308390
    34      5.739350
    35      2.308390
    36      2.308390
    37      5.739350
    38      2.308390
    39      2.308390
    40      5.739350
    41      2.308390
    42      2.308390
    43      5.739350
    44      2.308390
    45      2.308390
    46      5.739350
    47      2.308390
    48      2.308390
    49      5.739350
    50      2.308390
    51      2.308390
    52      5.739350
    53      2.308390
    54      2.308390
    55      5.739350
    56      2.308390
    57      2.308390
    58      5.739350
    59      2.308390
    60      2.308390
    61      5.739350
    62      2.308390
    63      2.308390
    64      5.739350
    65      2.308390
    66      2.308390
    67      5.739350
    68      2.308390
    69      2.308390
    70      5.739350
    71      2.308390
    72      2.308390
    73      5.739350
    74      2.308390
    75      2.308390
    76      5.739350
    77      2.308390
    78      2.308390
    79      5.739350
    80      2.308390
    81      2.308390
    82      5.739350
    83      2.308390
    84      2.308390
    85      5.739350
    86      2.308390
    87      2.308390
    88      5.739350
    89      2.308390
    90      2.308390
    91      5.739350
    92      2.308390
    93      2.308390
    94      5.739350
    95      2.308390
    96      2.308390
    97      5.739350
    98      2.308390
    99      2.308390
   100      5.739350
   101      2.308390
   102      2.308390
   103      5.739350
   104      2.308390
   105      2.308390
   106      5.739350
   107      2.308390
   108      2.308390
   109      5.739350
   110      2.308390
   111      2.308390
   112      5.739350
   113      2.308390
   114      2.308390
   115      5.739350
   116      2.308390
   117      2.308390
   118      5.739350
   119      2.308390
   120      2.308390
   121      5.739350
   122      2.308390
   123      2.308390
   124      5.739350
   125      2.308390
   126      2.308390
   127      5.739350
   128      2.308390
   129      2.308390
   130      5.739350
   131      2.308390
   132      2.308390
   133      5.739350
   134      2.308390
   135      2.308390
   136      5.739350
   137      2.308390
   138      2.308390
   139      5.739350
   140      2.308390
   141      2.308390
   142      5.739350
   143      2.308390
   144      2.308390
   145      5.739350
   146      2.308390
   147      2.308390
   148      5.739350
   149      2.308390
   150      2.308390
   151      5.739350
   152      2.308390
   153      2.308390
   154      5.739350
   155      2.308390
   156      2.308390
   157      5.739350
   158      2.308390
   159      2.308390
   160      5.739350
   161      2.308390
   162      2.308390
   163      5.739350
   164      2.308390
   165      2.308390
   166      5.739350
   167      2.308390
   168      2.308390
   169      5.739350
   170      2.308390
   171      2.308390
   172      5.739350
   173      2.308390
   174      2.308390
   175      5.739350
   176      2.308390
   177      2.308390


     ************************************************************************
     ************************** Output from HERINT **************************
     ************************************************************************



                      Nuclear contribution to dipole moments
                      --------------------------------------

                 au               Debye          C m (/(10**-30)

      x    -32.33488641       -82.18707813      -274.14658355
      y     12.45634518        31.66086937       105.60929246
      z     53.78495978       136.70772293       456.00787907


  Time used in HUCKEL     is       0.39 seconds
  Time used in OVERLAP    is       0.23 seconds
  Time used in POPOVLP    is       0.18 seconds
  Time used in DIPLEN     is       0.33 seconds
  Time used in QUADRUP    is       1.07 seconds
  Time used in KINENE     is       0.17 seconds

 Threshold for neglecting two-electron integrals:  1.00D-12
 HERMIT - Number of two-electron integrals written:    28770825 ( 38.4% )
 HERMIT - Megabytes written:                            329.443

  Time used in TWOINT     is      13.07 seconds
  Total CPU  time used in HERMIT:  15.50 seconds
  Total wall time used in HERMIT:   7.55 seconds


                        .----------------------------------.
                        | End of Integral Section (HERMIT) |
                        `----------------------------------'



                   .--------------------------------------------.
                   | Starting in Wave Function Section (SIRIUS) |
                   `--------------------------------------------'

NCCEXCI for singlet:   15
 CCSD_INPUT: core-val requested
 Requested number of core orbs per sym
                     1
 Indices of requested core orbs
                     1

 *** Output from Huckel module :

     Using EWMO model:          T
     Using EHT  model:          F
     Number of Huckel orbitals each symmetry:   36

 EWMO - Energy Weighted Maximum Overlap - is a Huckel type method,
        which normally is better than Extended Huckel Theory.
 Reference: Linderberg and Ohrn, Propagators in Quantum Chemistry (Wiley, 1973)

 Huckel EWMO eigenvalues for symmetry :  1
          -20.684752     -20.684702     -20.684411     -20.683956     -15.673169
           -1.709861      -1.602118      -1.593022      -1.587551      -1.433893
           -0.816046      -0.798696      -0.798143      -0.777398      -0.735896
           -0.713602      -0.707062      -0.682312      -0.664083      -0.648827
           -0.616247      -0.615081      -0.613770      -0.596177      -0.507896
           -0.257233      -0.242544      -0.237576      -0.225165      -0.186103
           -0.179473      -0.173984      -0.170582      -0.165181      -0.159789
           -0.149496

 **********************************************************************
 *SIRIUS* a direct, restricted step, second order MCSCF program       *
 **********************************************************************

 
     Date and time (Linux)  : Wed Jan  2 21:20:23 2019
     Host name              : n-62-23-32                              

 Title lines from ".mol" input file:
                                                                             
                                                                             

 Print level on unit LUPRI =   2 is   0
 Print level on unit LUW4  =   2 is  11

@    (Integral direct) CC calculation.

@    This is a combination run starting with
@              a restricted, closed shell Hartree-Fock calculation


 Initial molecular orbitals are obtained according to
 ".MOSTART EWMO  " input option

@    QM part is embedded in an environment :

@         Model: QMMM

     Wave function specification
     ============================

     For the specification of the Coupled Cluster: see later.

@    Wave function type        --- CC ---
@    Number of closed shell electrons          50
@    Number of electrons in active shells       0
@    Total charge of the molecule               0

@    Spin multiplicity and 2 M_S                1         0
@    Total number of symmetries                 1 (point group: C1 )
@    Reference state symmetry                   1 (irrep name : A  )

     Orbital specifications
     ======================
@    Abelian symmetry species          All |    1
@                                          |  A  
                                       --- |  ---
@    Occupied SCF orbitals              25 |   25
@    Secondary orbitals                131 |  131
@    Total number of orbitals          156 |  156
@    Number of basis functions         156 |  156

     Optimization information
     ========================
@    Number of configurations                 1
@    Number of orbital rotations           3275
     ------------------------------------------
@    Total number of variables             3276

     Maximum number of Fock   iterations      0
     Maximum number of DIIS   iterations     60
     Maximum number of QC-SCF iterations     60
     Threshold for SCF convergence     1.00D-07


 Changes of defaults for CC:
 ---------------------------


 -Implicit frozen core calculation
 -Excitation energies calculated
 -One-photon absorption strengths will be calculated
 -Oscillator strengths calculated
  
* Read MO coefficients from SIRIUS.RST with label "NEWORB  " and header info:  2Jan19  REORTHO 


 ***********************************************
 ***** DIIS acceleration of SCF iterations *****
 ***********************************************

 C1-DIIS algorithm; max error vectors =    8
 -----------------------------------------------------------------------------

 *** DIIS iteration number    1
 RDSUPM called. NFMAT, ISYMDM(1:NFMAT)                     1
                     1

Calculating AOSUPINT
     (Precalculated two-electron integrals are transformed to P-supermatrix elements.
      Threshold for discarding integrals :  1.00D-12 )
  CPU  time used in FORMSUP    is   5.38 seconds
  WALL time used in FORMSUP    is   9.53 seconds

 ITDIIS, energy, error norm, change in energy, scr.thr., difden:
@ DIIS iter.   1    -359.901071584        3.81343D+00   -3.60D+02  -20    F

 (DIIS_RED) Control Parameters C2DIIS =         F NEVC =    1


 (DIIS_RED) B matrix:

               Column   1
       1      14.54223302
    ==== End of matrix output ====

 DIIS C vector; C2DIIS = F, LAMBDA = -1.45D+01
    1.000000
* Read MO coefficients from SIRIUS.RST with label "NEWORB  " and header info:  2Jan19  DIIS   1
      Virial theorem: -V/T =      1.997923
@      MULPOP N      -0.24; H       0.15; H       0.15; H       0.17; O      -0.65; O      -0.63; O      -0.92; O      -0.59; H       0.33; H       0.33; 
@             H       0.33; H       0.31; H       0.32; H       0.32; H       0.31; H       0.32; 
   1  Level shift: doubly occupied orbital energies shifted by -2.00D-01

 DIIS Fock eigenvalues in symmetry 1
      -20.75089      -20.72107      -20.71699      -20.47169      -16.06845
       -1.57263       -1.54487       -1.54456       -1.47665       -1.43460
       -0.97828       -0.96510       -0.94290       -0.93944       -0.93232
       -0.88806       -0.81950       -0.80019       -0.78394       -0.78062
       -0.77133       -0.75392       -0.75011       -0.68370       -0.64523
        0.08278        0.14157        0.14932        0.18015        0.20835
        0.21431        0.23520        0.25433        0.28158        0.30091
        0.34846        0.39758        0.41169        0.48083        0.50261
        0.54640        0.55934        0.57477        0.57808        0.58828
        0.61254        0.62655        0.76444        0.81787        0.84495
        0.93125        0.93806        0.96568        0.97672        0.99095
        1.04082        1.04980        1.05709        1.08321        1.10250
        1.12156        1.16583        1.19525        1.22042        1.24567
        1.29999        1.31630        1.37800        1.41595        1.44744
        1.46068        1.46313        1.46708        1.51760        1.54280
        1.59796        1.62066        1.64263        1.65791        1.68846
        1.71688        1.72154        1.76702        1.79734        1.80761
        1.82620        1.86127        1.89113        1.96631        2.02105
        2.06976        2.16165        2.18893        2.25353        2.27552
        2.28652        2.30795        2.33850        2.38658        2.43165
        2.54493        2.57751        2.60325        2.64530        2.65353
        2.70508        2.70895        2.72453        2.73512        2.76777
        2.81163        2.86452        2.93178        3.06284        3.21389
        3.25083        3.37776        3.39390        3.40555        3.46948
        3.47921        3.48131        3.53662        3.57624        3.59513
        3.60549        3.64546        3.69377        3.93316        3.96327
        3.97127        4.05932        4.14853        4.16530        4.21601
        4.23580        4.55131        4.82234        4.90138        5.27715
        5.34044        5.35371        5.46870        5.63175        5.70534
        5.78562        5.84719        6.06847        6.07864        6.19144
        6.19509       36.64595       51.53171       51.53981       51.57000
       51.80590
 Time used in FCKEIG, thr_jaco:   6.55D-01  6.80D-02  1.67D-04
 CPU and wall times used in FCKEIG, THR_FCKEIG:   6.56D-01  6.80D-02  3.81D-02
 -----------------------------------------------------------------------------

 *** DIIS iteration number    2
 RDSUPM called. NFMAT, ISYMDM(1:NFMAT)                     1
                     1

 ITDIIS, energy, error norm, change in energy, scr.thr., difden:
@ DIIS iter.   2    -360.690027071        1.01363D+00   -7.89D-01  -20    F

 (DIIS_RED) Control Parameters C2DIIS =         F NEVC =    2


 (DIIS_RED) B matrix:

               Column   1     Column   2
       1      14.54223302
       2       0.69010940     1.02744439
    ==== End of matrix output ====

 DIIS C vector; C2DIIS = F, LAMBDA = -1.02D+00
    0.023774    0.976226
* Read MO coefficients from SIRIUS.RST with label "NEWORB  " and header info:  2Jan19  DIIS   2
      Virial theorem: -V/T =      2.004625
@      MULPOP N      -0.64; H       0.23; H       0.24; H       0.24; O      -0.61; O      -0.58; O      -0.70; O      -0.61; H       0.32; H       0.31; 
@             H       0.29; H       0.32; H       0.21; H       0.35; H       0.33; H       0.30; 
   2  Level shift: doubly occupied orbital energies shifted by -1.00D-01

 DIIS Fock eigenvalues in symmetry 1
      -20.76663      -20.68014      -20.67578      -20.65878      -15.55335
       -1.45229       -1.44462       -1.43588       -1.43266       -1.21585
       -0.81682       -0.80832       -0.80628       -0.79601       -0.73418
       -0.72843       -0.70577       -0.69272       -0.68834       -0.66963
       -0.64823       -0.64718       -0.62870       -0.62269       -0.53214
        0.13478        0.17448        0.18920        0.19709        0.23855
        0.25946        0.27284        0.29048        0.30101        0.33794
        0.37109        0.47228        0.47719        0.52015        0.53673
        0.58286        0.59143        0.61050        0.61977        0.62827
        0.64306        0.68958        0.86016        0.91795        0.92372
        0.94515        0.96534        0.96979        0.99320        1.00996
        1.04233        1.07696        1.08043        1.11435        1.11840
        1.13553        1.16901        1.27422        1.29553        1.31747
        1.33224        1.37435        1.41286        1.46654        1.49614
        1.51735        1.52010        1.53127        1.54010        1.57927
        1.60141        1.66744        1.69586        1.70621        1.74464
        1.77470        1.81055        1.82768        1.85467        1.87929
        1.88946        1.95197        1.96032        2.05023        2.14048
        2.17678        2.21658        2.23884        2.28669        2.30315
        2.33934        2.37125        2.40585        2.46704        2.52429
        2.60867        2.63618        2.65073        2.70372        2.73276
        2.77581        2.78886        2.80499        2.84776        2.91290
        2.93105        2.94689        3.07201        3.18324        3.37050
        3.40432        3.41104        3.42357        3.44111        3.45517
        3.46733        3.50408        3.50602        3.56675        3.59297
        3.62917        3.63408        3.68575        3.89510        3.96893
        3.99439        4.08924        4.14958        4.17892        4.19128
        4.26348        4.71483        5.08124        5.15306        5.26159
        5.29903        5.33867        5.36072        5.63563        5.66656
        5.70518        5.80577        6.02277        6.09298        6.10152
        6.21863       37.05358       51.41823       51.48299       51.50956
       51.53086
 Time used in FCKEIG, thr_jaco:   2.82D-01  2.90D-02  4.43D-05
 CPU and wall times used in FCKEIG, THR_FCKEIG:   2.82D-01  2.90D-02  1.01D-02
 -----------------------------------------------------------------------------

 *** DIIS iteration number    3
 RDSUPM called. NFMAT, ISYMDM(1:NFMAT)                     1
                     1

 ITDIIS, energy, error norm, change in energy, scr.thr., difden:
@ DIIS iter.   3    -360.754458548        3.98160D-01   -6.44D-02  -20    F

 (DIIS_RED) Control Parameters C2DIIS =         F NEVC =    3


 (DIIS_RED) B matrix:

               Column   1     Column   2     Column   3
       1      14.54223302
       2       0.69010940     1.02744439
       3       0.78459804     0.00341372     0.15853160
    ==== End of matrix output ====

 DIIS C vector; C2DIIS = F, LAMBDA = -1.08D-01
   -0.048295    0.134034    0.914261
* Read MO coefficients from SIRIUS.RST with label "NEWORB  " and header info:  2Jan19  DIIS   3
      Virial theorem: -V/T =      2.002239
@      MULPOP N      -0.54; H       0.20; H       0.21; H       0.20; O      -0.66; O      -0.63; O      -0.81; O      -0.67; H       0.34; H       0.33; 
@             H       0.30; H       0.34; H       0.28; H       0.41; H       0.37; H       0.33; 
   3  Level shift: doubly occupied orbital energies shifted by -5.00D-02

 DIIS Fock eigenvalues in symmetry 1
      -20.60781      -20.59473      -20.58633      -20.54574      -15.64142
       -1.39443       -1.37260       -1.36982       -1.33995       -1.20146
       -0.75551       -0.74658       -0.74150       -0.71448       -0.68990
       -0.67561       -0.63958       -0.63618       -0.62271       -0.60487
       -0.57985       -0.55642       -0.55265       -0.53589       -0.49600
        0.13888        0.17991        0.19254        0.20260        0.24179
        0.26139        0.27562        0.29173        0.30452        0.33984
        0.37622        0.47072        0.47706        0.53276        0.54629
        0.59384        0.60051        0.62089        0.62787        0.63653
        0.65246        0.69312        0.86072        0.91142        0.92746
        0.96728        0.98517        0.98729        0.99806        1.01885
        1.05710        1.08667        1.09356        1.12284        1.13673
        1.15541        1.17588        1.27677        1.29826        1.32391
        1.33686        1.37687        1.41989        1.47741        1.50554
        1.52950        1.53174        1.54057        1.56011        1.59587
        1.61749        1.67773        1.70548        1.71608        1.75545
        1.78499        1.81536        1.83623        1.86481        1.88613
        1.89884        1.95536        1.96573        2.05378        2.13208
        2.17038        2.22713        2.25374        2.31228        2.31842
        2.35575        2.38433        2.41641        2.47926        2.52900
        2.61734        2.64940        2.66307        2.71468        2.74146
        2.78437        2.79798        2.81514        2.84505        2.91233
        2.91826        2.92474        3.06066        3.17641        3.37414
        3.41076        3.42616        3.44052        3.44484        3.45706
        3.51950        3.52861        3.53179        3.58440        3.64386
        3.65541        3.66051        3.70101        3.94790        3.98318
        4.01719        4.10726        4.19705        4.20451        4.21870
        4.27987        4.67477        5.02360        5.09895        5.31302
        5.35988        5.36822        5.38205        5.65499        5.72964
        5.75811        5.82281        6.11295        6.11883        6.12198
        6.23909       36.91968       51.51840       51.52797       51.55349
       51.58760
 Time used in FCKEIG, thr_jaco:   2.53D-01  2.50D-02  1.74D-05
 CPU and wall times used in FCKEIG, THR_FCKEIG:   2.53D-01  2.50D-02  3.98D-03
 -----------------------------------------------------------------------------

 *** DIIS iteration number    4
 RDSUPM called. NFMAT, ISYMDM(1:NFMAT)                     1
                     1

 ITDIIS, energy, error norm, change in energy, scr.thr., difden:
@ DIIS iter.   4    -360.764909826        1.11942D-01   -1.05D-02  -20    F

 (DIIS_RED) Control Parameters C2DIIS =         F NEVC =    4


 (DIIS_RED) B matrix:

               Column   1     Column   2     Column   3     Column   4
       1      14.54223302
       2       0.69010940     1.02744439
       3       0.78459804     0.00341372     0.15853160
       4       0.02414833     0.09387859    -0.00462008     0.01253093
    ==== End of matrix output ====

 DIIS C vector; C2DIIS = F, LAMBDA = -4.17D-03
   -0.000406   -0.089990    0.060281    1.030115
* Read MO coefficients from SIRIUS.RST with label "NEWORB  " and header info:  2Jan19  DIIS   4
      Virial theorem: -V/T =      2.003079
@      MULPOP N      -0.62; H       0.21; H       0.23; H       0.22; O      -0.67; O      -0.64; O      -0.79; O      -0.69; H       0.35; H       0.34; 
@             H       0.31; H       0.35; H       0.27; H       0.42; H       0.38; H       0.33; 
   4  Level shift: doubly occupied orbital energies shifted by -2.50D-02

 DIIS Fock eigenvalues in symmetry 1
      -20.58697      -20.57460      -20.56433      -20.55981      -15.59050
       -1.37228       -1.34944       -1.34686       -1.32761       -1.16735
       -0.73235       -0.72371       -0.71781       -0.69296       -0.66062
       -0.64220       -0.61904       -0.61231       -0.59768       -0.57864
       -0.55289       -0.52896       -0.52523       -0.52002       -0.46529
        0.13973        0.17923        0.19255        0.20147        0.24189
        0.26286        0.27638        0.29363        0.30433        0.34205
        0.37728        0.47505        0.48089        0.53362        0.54585
        0.59353        0.60090        0.62018        0.62643        0.63622
        0.65112        0.69577        0.86512        0.91704        0.93126
        0.96606        0.98528        0.98949        0.99828        1.01959
        1.05803        1.08673        1.09407        1.12358        1.13547
        1.15115        1.17664        1.27756        1.30198        1.32495
        1.33960        1.37960        1.42115        1.47645        1.50546
        1.52874        1.53115        1.53796        1.55767        1.59453
        1.61445        1.67744        1.70383        1.71590        1.75556
        1.78432        1.81967        1.83737        1.86409        1.88791
        1.89899        1.95734        1.96681        2.05717        2.13894
        2.17669        2.22466        2.25243        2.30767        2.31551
        2.35392        2.38264        2.41298        2.48137        2.53338
        2.61461        2.64817        2.66158        2.71372        2.74365
        2.78511        2.79925        2.81628        2.84821        2.91899
        2.92298        2.93147        3.06775        3.18259        3.38406
        3.41749        3.42982        3.43276        3.44469        3.45633
        3.51840        3.51946        3.52831        3.58459        3.64098
        3.64998        3.65740        3.70022        3.93878        3.98200
        4.01657        4.10710        4.19425        4.19948        4.21667
        4.27906        4.68496        5.03837        5.11341        5.31131
        5.34176        5.36498        5.38047        5.65461        5.72658
        5.74169        5.82095        6.09511        6.11571        6.11880
        6.23763       36.94528       51.51378       51.52387       51.54790
       51.55219
 Time used in FCKEIG, thr_jaco:   2.97D-01  3.10D-02  4.89D-06
 CPU and wall times used in FCKEIG, THR_FCKEIG:   2.97D-01  3.10D-02  1.12D-03
 -----------------------------------------------------------------------------

 *** DIIS iteration number    5
 RDSUPM called. NFMAT, ISYMDM(1:NFMAT)                     1
                     1

 ITDIIS, energy, error norm, change in energy, scr.thr., difden:
@ DIIS iter.   5    -360.766155834        2.48354D-02   -1.25D-03  -20    F

 (DIIS_RED) Control Parameters C2DIIS =         F NEVC =    5


 (DIIS_RED) B matrix:

               Column   1     Column   2     Column   3     Column   4     Column   5
       1      14.54223302
       2       0.69010940     1.02744439
       3       0.78459804     0.00341372     0.15853160
       4       0.02414833     0.09387859    -0.00462008     0.01253093
       5       0.01391486     0.00689484     0.00519879     0.00124611     0.00061680
    ==== End of matrix output ====

 DIIS C vector; C2DIIS = F, LAMBDA = -3.50D-04
    0.001526    0.005326   -0.049027   -0.151669    1.193844
* Read MO coefficients from SIRIUS.RST with label "NEWORB  " and header info:  2Jan19  DIIS   5
      Virial theorem: -V/T =      2.002783
@      MULPOP N      -0.61; H       0.21; H       0.23; H       0.21; O      -0.68; O      -0.65; O      -0.81; O      -0.70; H       0.36; H       0.35; 
@             H       0.31; H       0.36; H       0.28; H       0.43; H       0.39; H       0.34; 

 DIIS Fock eigenvalues in symmetry 1
      -20.56144      -20.54891      -20.53885      -20.52831      -15.56002
       -1.34723       -1.32428       -1.32153       -1.30025       -1.14074
       -0.70787       -0.69917       -0.69294       -0.66667       -0.63481
       -0.61577       -0.59232       -0.58746       -0.57265       -0.55366
       -0.52686       -0.50277       -0.49896       -0.49210       -0.43849
        0.13980        0.17914        0.19242        0.20141        0.24184
        0.26295        0.27639        0.29382        0.30420        0.34230
        0.37761        0.47545        0.48125        0.53421        0.54570
        0.59346        0.60073        0.62014        0.62614        0.63607
        0.65108        0.69615        0.86632        0.91795        0.93209
        0.96721        0.98611        0.99046        0.99918        1.02038
        1.05890        1.08658        1.09425        1.12352        1.13579
        1.15192        1.17667        1.27791        1.30258        1.32514
        1.34013        1.38019        1.42133        1.47642        1.50553
        1.52837        1.53097        1.53725        1.55830        1.59463
        1.61496        1.67713        1.70342        1.71608        1.75540
        1.78390        1.82002        1.83751        1.86367        1.88822
        1.89892        1.95718        1.96698        2.05750        2.13980
        2.17730        2.22392        2.25200        2.30791        2.31512
        2.35353        2.38214        2.41226        2.48207        2.53401
        2.61377        2.64780        2.66134        2.71320        2.74361
        2.78475        2.79897        2.81604        2.84834        2.91953
        2.92328        2.93262        3.06919        3.18341        3.38594
        3.41833        3.43072        3.43506        3.44537        3.45629
        3.51822        3.52177        3.52846        3.58461        3.64208
        3.65113        3.65778        3.70001        3.94125        3.98184
        4.01668        4.10705        4.19562        4.20033        4.21715
        4.27896        4.68777        5.04101        5.11590        5.31176
        5.34548        5.36568        5.38105        5.65479        5.72745
        5.74465        5.82102        6.09832        6.11557        6.11899
        6.23759       36.95063       51.51445       51.52443       51.55050
       51.55640
 Time used in FCKEIG, thr_jaco:   8.56D-01  9.20D-02  1.08D-06
 CPU and wall times used in FCKEIG, THR_FCKEIG:   8.56D-01  9.20D-02  2.48D-04
 -----------------------------------------------------------------------------

 *** DIIS iteration number    6
 RDSUPM called. NFMAT, ISYMDM(1:NFMAT)                     1
                     1

 ITDIIS, energy, error norm, change in energy, scr.thr., difden:
@ DIIS iter.   6    -360.766249813        8.36901D-03   -9.40D-05  -20    F

 (DIIS_RED) Control Parameters C2DIIS =         F NEVC =    6


 (DIIS_RED) B matrix:

               Column   1     Column   2     Column   3     Column   4     Column   5     Column   6
       1      14.54223302
       2       0.69010940     1.02744439
       3       0.78459804     0.00341372     0.15853160
       4       0.02414833     0.09387859    -0.00462008     0.01253093
       5       0.01391486     0.00689484     0.00519879     0.00124611     0.00061680
       6      -0.00179832    -0.00044901     0.00063809     0.00024089     0.00006895     0.00007004
    ==== End of matrix output ====

 DIIS C vector; C2DIIS = F, LAMBDA = -3.86D-05
    0.000563    0.007992   -0.015659   -0.100444    0.193185    0.914363
* Read MO coefficients from SIRIUS.RST with label "NEWORB  " and header info:  2Jan19  DIIS   6
      Virial theorem: -V/T =      2.002905
@      MULPOP N      -0.61; H       0.21; H       0.23; H       0.21; O      -0.69; O      -0.65; O      -0.81; O      -0.70; H       0.36; H       0.35; 
@             H       0.31; H       0.36; H       0.28; H       0.42; H       0.39; H       0.34; 

 DIIS Fock eigenvalues in symmetry 1
      -20.56175      -20.54893      -20.53890      -20.53058      -15.56381
       -1.34731       -1.32424       -1.32146       -1.30082       -1.14192
       -0.70804       -0.69941       -0.69302       -0.66737       -0.63564
       -0.61671       -0.59302       -0.58797       -0.57280       -0.55377
       -0.52675       -0.50259       -0.49878       -0.49253       -0.43954
        0.13967        0.17904        0.19232        0.20130        0.24173
        0.26282        0.27625        0.29365        0.30412        0.34209
        0.37741        0.47508        0.48091        0.53384        0.54557
        0.59338        0.60068        0.62000        0.62596        0.63596
        0.65084        0.69584        0.86571        0.91733        0.93175
        0.96695        0.98604        0.99017        0.99894        1.02014
        1.05882        1.08643        1.09421        1.12337        1.13556
        1.15161        1.17641        1.27756        1.30221        1.32503
        1.33981        1.37979        1.42110        1.47616        1.50524
        1.52822        1.53078        1.53701        1.55800        1.59446
        1.61464        1.67700        1.70316        1.71579        1.75521
        1.78375        1.81965        1.83719        1.86351        1.88786
        1.89864        1.95682        1.96662        2.05710        2.13911
        2.17663        2.22367        2.25185        2.30755        2.31490
        2.35340        2.38199        2.41200        2.48161        2.53353
        2.61350        2.64762        2.66113        2.71304        2.74335
        2.78449        2.79869        2.81579        2.84778        2.91873
        2.92280        2.93158        3.06813        3.18279        3.38461
        3.41781        3.43014        3.43424        3.44507        3.45612
        3.51806        3.52107        3.52844        3.58457        3.64178
        3.65077        3.65771        3.69984        3.94040        3.98167
        4.01666        4.10700        4.19520        4.19998        4.21704
        4.27879        4.68590        5.03906        5.11399        5.31157
        5.34438        5.36568        5.38104        5.65477        5.72726
        5.74363        5.82080        6.09717        6.11532        6.11892
        6.23752       36.94692       51.51442       51.52412       51.55004
       51.55458
 Time used in FCKEIG, thr_jaco:   3.19D-01  3.30D-02  3.66D-07
 CPU and wall times used in FCKEIG, THR_FCKEIG:   3.19D-01  3.30D-02  8.37D-05
 -----------------------------------------------------------------------------

 *** DIIS iteration number    7
 RDSUPM called. NFMAT, ISYMDM(1:NFMAT)                     1
                     1

 ITDIIS, energy, error norm, change in energy, scr.thr., difden:
@ DIIS iter.   7    -360.766256903        2.52381D-03   -7.09D-06  -20    F

 (DIIS_RED) Control Parameters C2DIIS =         F NEVC =    7


 (DIIS_RED) B matrix:

               Column   1     Column   2     Column   3     Column   4     Column   5     Column   6
       1      14.54223302
       2       0.69010940     1.02744439
       3       0.78459804     0.00341372     0.15853160
       4       0.02414833     0.09387859    -0.00462008     0.01253093
       5       0.01391486     0.00689484     0.00519879     0.00124611     0.00061680
       6      -0.00179832    -0.00044901     0.00063809     0.00024089     0.00006895     0.00007004
       7       0.00047534    -0.00002246     0.00008544     0.00000630     0.00003877    -0.00000008

               Column   7
       7       0.00000637
    ==== End of matrix output ====

 DIIS C vector; C2DIIS = F, LAMBDA = -1.48D-06
   -0.000225   -0.001417    0.006755    0.029287   -0.164149    0.006755    1.122993
* Read MO coefficients from SIRIUS.RST with label "NEWORB  " and header info:  2Jan19  DIIS   7
      Virial theorem: -V/T =      2.002878
@      MULPOP N      -0.61; H       0.21; H       0.23; H       0.21; O      -0.69; O      -0.65; O      -0.81; O      -0.70; H       0.36; H       0.35; 
@             H       0.31; H       0.36; H       0.28; H       0.42; H       0.39; H       0.34; 

 DIIS Fock eigenvalues in symmetry 1
      -20.56179      -20.54901      -20.53896      -20.52990      -15.56314
       -1.34729       -1.32422       -1.32145       -1.30050       -1.14169
       -0.70808       -0.69943       -0.69305       -0.66716       -0.63554
       -0.61655       -0.59282       -0.58800       -0.57288       -0.55385
       -0.52668       -0.50254       -0.49871       -0.49218       -0.43930
        0.13970        0.17906        0.19232        0.20133        0.24175
        0.26284        0.27627        0.29367        0.30412        0.34213
        0.37749        0.47515        0.48099        0.53398        0.54560
        0.59338        0.60069        0.62003        0.62597        0.63597
        0.65089        0.69589        0.86584        0.91745        0.93185
        0.96707        0.98609        0.99028        0.99904        1.02021
        1.05889        1.08642        1.09421        1.12339        1.13562
        1.15174        1.17643        1.27765        1.30228        1.32507
        1.33987        1.37988        1.42115        1.47621        1.50530
        1.52820        1.53078        1.53696        1.55814        1.59449
        1.61476        1.67699        1.70317        1.71589        1.75520
        1.78374        1.81968        1.83725        1.86351        1.88795
        1.89866        1.95684        1.96667        2.05718        2.13922
        2.17673        2.22363        2.25181        2.30765        2.31491
        2.35337        2.38197        2.41196        2.48175        2.53359
        2.61346        2.64763        2.66117        2.71302        2.74335
        2.78448        2.79868        2.81578        2.84784        2.91884
        2.92294        2.93177        3.06835        3.18287        3.38487
        3.41790        3.43024        3.43455        3.44512        3.45613
        3.51806        3.52138        3.52843        3.58457        3.64192
        3.65093        3.65774        3.69985        3.94073        3.98166
        4.01664        4.10700        4.19537        4.20011        4.21708
        4.27881        4.68628        5.03940        5.11432        5.31158
        5.34480        5.36567        5.38104        5.65475        5.72730
        5.74398        5.82079        6.09758        6.11531        6.11890
        6.23750       36.94757       51.51435       51.52409       51.55015
       51.55508
 Time used in FCKEIG, thr_jaco:   8.11D-01  8.80D-02  1.10D-07
 CPU and wall times used in FCKEIG, THR_FCKEIG:   8.11D-01  8.80D-02  2.52D-05
 -----------------------------------------------------------------------------

 *** DIIS iteration number    8
 RDSUPM called. NFMAT, ISYMDM(1:NFMAT)                     1
                     1

 ITDIIS, energy, error norm, change in energy, scr.thr., difden:
@ DIIS iter.   8    -360.766257612        3.90375D-04   -7.10D-07  -20    F

 (DIIS_RED) Control Parameters C2DIIS =         F NEVC =    8


 (DIIS_RED) B matrix:

               Column   1     Column   2     Column   3     Column   4     Column   5     Column   6
       1      14.54223302
       2       0.69010940     1.02744439
       3       0.78459804     0.00341372     0.15853160
       4       0.02414833     0.09387859    -0.00462008     0.01253093
       5       0.01391486     0.00689484     0.00519879     0.00124611     0.00061680
       6      -0.00179832    -0.00044901     0.00063809     0.00024089     0.00006895     0.00007004
       7       0.00047534    -0.00002246     0.00008544     0.00000630     0.00003877    -0.00000008
       8       0.00005441     0.00000697    -0.00000081     0.00000319     0.00000126     0.00000150

               Column   7     Column   8
       7       0.00000637
       8       0.00000040     0.00000015
    ==== End of matrix output ====

 DIIS C vector; C2DIIS = F, LAMBDA = -7.69D-08
    0.000014    0.000021   -0.000677   -0.002373    0.024049   -0.033962   -0.201290    1.214218
* Read MO coefficients from SIRIUS.RST with label "NEWORB  " and header info:  2Jan19  DIIS   8
      Virial theorem: -V/T =      2.002892
@      MULPOP N      -0.61; H       0.21; H       0.23; H       0.21; O      -0.69; O      -0.65; O      -0.81; O      -0.71; H       0.36; H       0.35; 
@             H       0.31; H       0.36; H       0.28; H       0.42; H       0.39; H       0.34; 

 DIIS Fock eigenvalues in symmetry 1
      -20.56175      -20.54896      -20.53893      -20.52992      -15.56317
       -1.34728       -1.32421       -1.32143       -1.30050       -1.14170
       -0.70806       -0.69941       -0.69303       -0.66716       -0.63555
       -0.61656       -0.59284       -0.58801       -0.57289       -0.55386
       -0.52666       -0.50252       -0.49870       -0.49218       -0.43932
        0.13970        0.17906        0.19232        0.20134        0.24174
        0.26283        0.27626        0.29367        0.30412        0.34213
        0.37748        0.47514        0.48098        0.53398        0.54560
        0.59338        0.60069        0.62002        0.62597        0.63596
        0.65089        0.69589        0.86583        0.91744        0.93185
        0.96707        0.98609        0.99028        0.99903        1.02021
        1.05890        1.08642        1.09421        1.12340        1.13562
        1.15175        1.17643        1.27765        1.30227        1.32507
        1.33987        1.37987        1.42115        1.47621        1.50529
        1.52819        1.53078        1.53696        1.55813        1.59448
        1.61476        1.67699        1.70317        1.71588        1.75520
        1.78374        1.81967        1.83724        1.86350        1.88794
        1.89865        1.95683        1.96667        2.05717        2.13920
        2.17672        2.22363        2.25181        2.30766        2.31491
        2.35337        2.38197        2.41196        2.48173        2.53358
        2.61346        2.64762        2.66117        2.71302        2.74334
        2.78447        2.79867        2.81577        2.84783        2.91883
        2.92292        2.93176        3.06833        3.18286        3.38485
        3.41790        3.43023        3.43453        3.44512        3.45614
[...]

 Principal values of diagonalized transition strength matrix:

             a.u.               
 1      -0.00000001
 2      -0.00000000
 3       0.00026752

 Principal axis of diagonalized transition strength matrix:


               Column   1     Column   2     Column   3
       1      -0.28635616     0.26232107     0.92151387
       2       0.14061981     0.96288206    -0.23040012
       3       0.94774797    -0.06360661     0.31261474
    ==== End of matrix output ====


 CCSD   oscillator strength matrix for state nr. 13 of symmetry 1
 CCSD  excitation energy:15.14278176


               Column   1     Column   2     Column   3
       1       0.00229335    -0.00057339     0.00077804
       2      -0.00057339     0.00014336    -0.00019454
       3       0.00077804    -0.00019454     0.00026381
    ==== End of matrix output ====

 Principal values of diagonalized oscillator strength matrix:

             a.u.               
 1      -0.00000013
 2      -0.00000000
 3       0.00270066

 Principal axis of diagonalized oscillator strength matrix:


               Column   1     Column   2     Column   3
       1      -0.28635616     0.26232107     0.92151387
       2       0.14061981     0.96288206    -0.23040012
       3       0.94774797    -0.06360661     0.31261474
    ==== End of matrix output ====


 CCSD  Transition strength matrix for state nr. 14 of symmetry 1
 CCSD  excitation energy:15.21113820

 Gauge: length

               Column   1     Column   2     Column   3
       1     3.455495D-05   4.210150D-05  -4.446082D-05
       2     4.210150D-05   5.127228D-05  -5.414737D-05
       3    -4.446082D-05  -5.414737D-05   5.718353D-05
    ==== End of matrix output ====

 Principal values of diagonalized transition strength matrix:

             a.u.               
 1      -0.00000001
 2       0.00000000
 3       0.00014302

 Principal axis of diagonalized transition strength matrix:


               Column   1     Column   2     Column   3
       1       0.86821444     0.06736631    -0.49159481
       2      -0.39316479     0.69779451    -0.59875227
       3       0.30269643     0.71312314     0.63232133
    ==== End of matrix output ====


 CCSD   oscillator strength matrix for state nr. 14 of symmetry 1
 CCSD  excitation energy:15.21113820


               Column   1     Column   2     Column   3
       1     3.504134D-04   4.269412D-04  -4.508664D-04
       2     4.269412D-04   5.199398D-04  -5.490954D-04
       3    -4.508664D-04  -5.490954D-04   5.798843D-04
    ==== End of matrix output ====

 Principal values of diagonalized oscillator strength matrix:

             a.u.               
 1      -0.00000012
 2      -0.00000000
 3       0.00145035

 Principal axis of diagonalized oscillator strength matrix:


               Column   1     Column   2     Column   3
       1       0.86821444     0.06736631    -0.49159481
       2      -0.39316479     0.69779451    -0.59875227
       3       0.30269643     0.71312314     0.63232133
    ==== End of matrix output ====


 CCSD  Transition strength matrix for state nr. 15 of symmetry 1
 CCSD  excitation energy:15.29133216

 Gauge: length

               Column   1     Column   2     Column   3
       1     2.497293D-04  -6.744241D-05  -8.841621D-05
       2    -6.744241D-05   1.821089D-05   2.387677D-05
       3    -8.841621D-05   2.387677D-05   3.130317D-05
    ==== End of matrix output ====

 Principal values of diagonalized transition strength matrix:

             a.u.               
 1      -0.00000000
 2       0.00000000
 3       0.00029925

 Principal axis of diagonalized transition strength matrix:


               Column   1     Column   2     Column   3
       1       0.33957179     0.22396849     0.91352565
       2       0.90026775    -0.35868445    -0.24670519
       3       0.27241325     0.90619180    -0.32343073
    ==== End of matrix output ====


 CCSD   oscillator strength matrix for state nr. 15 of symmetry 1
 CCSD  excitation energy:15.29133216


               Column   1     Column   2     Column   3
       1       0.00254580    -0.00068752    -0.00090133
       2      -0.00068752     0.00018565     0.00024341
       3      -0.00090133     0.00024341     0.00031911
    ==== End of matrix output ====

 Principal values of diagonalized oscillator strength matrix:

             a.u.               
 1      -0.00000003
 2      -0.00000000
 3       0.00305058

 Principal axis of diagonalized oscillator strength matrix:


               Column   1     Column   2     Column   3
       1       0.33957179     0.22396849     0.91352565
       2       0.90026775    -0.35868445    -0.24670519
       3       0.27241325     0.90619180    -0.32343073
    ==== End of matrix output ====

  Total time for    135 linear response residues:     117.25 seconds.
  

 *******************************************************************************
 *******************************************************************************
 *                                                                             *
 *                                                                             *
 *                   SUMMARY OF COUPLED CLUSTER CALCULATION                    *
 *                                                                             *
 *                                                                             *
 *******************************************************************************
 *******************************************************************************

                                                                                
                                                                                
            Total SCF   energy:                  -360.7662576375                
            Total MP2   energy:                  -361.8710895254                
            Total CCSD  energy:                  -361.9101898091                
                                                                                
                                                                                
            Total SCF   energy:                  -360.7662576375                
            Total RSTAR energy:                  -361.9101898091                
            Total CCSD  energy:                  -361.9103396518                
                                                                                
                                                                                
            Total SCF   energy:                  -360.7662576375                
            Total RSTAR energy:                  -361.9103396518                
            Total CCSD  energy:                  -361.9103413421                
                                                                                
                                                                                
            Total SCF   energy:                  -360.7662576375                
            Total RSTAR energy:                  -361.9103413421                
            Total CCSD  energy:                  -361.9103414659                
                                                                                
                                                                                
            Total SCF   energy:                  -360.7662576375                
            Total RSTAR energy:                  -361.9103414659                
            Total CCSD  energy:                  -361.9103414711                
                                                                                
                                                                                
            Total SCF   energy:                  -360.7662576375                
            Total RSTAR energy:                  -361.9103414711                
            Total CCSD  energy:                  -361.9103414713                
            CCSD Total  energy:                  -362.3276127713                
            CCSD E(QM/MM)     :                    -0.4120971107                
                                                                                
                                                                                
                                                                                
 +=============================================================================+
 |  sym. | Exci.  |        CCSD       Excitation energies            | ||T1||  |
 |(spin, |        +------------------------------------------------------------+
 | spat) |        |     Hartree    |       eV.      |     cm-1       |    %    |
 +=============================================================================+
 | ^1A   |    1   |    14.8318268  |     403.59454  |   3255209.690  |  88.01  |
 | ^1A   |    2   |    14.8808106  |     404.92746  |   3265960.397  |  88.48  |
 | ^1A   |    3   |    14.9031756  |     405.53604  |   3270868.949  |  88.57  |
 | ^1A   |    4   |    14.9647485  |     407.21152  |   3284382.630  |  88.05  |
 | ^1A   |    5   |    15.0054416  |     408.31884  |   3293313.738  |  87.65  |
 | ^1A   |    6   |    15.0173681  |     408.64337  |   3295931.306  |  87.68  |
 | ^1A   |    7   |    15.0230481  |     408.79793  |   3297177.909  |  87.68  |
 | ^1A   |    8   |    15.0674303  |     410.00564  |   3306918.688  |  87.91  |
 | ^1A   |    9   |    15.0823178  |     410.41074  |   3310186.111  |  87.67  |
 | ^1A   |   10   |    15.1159043  |     411.32468  |   3317557.490  |  87.78  |
 | ^1A   |   11   |    15.1230072  |     411.51796  |   3319116.397  |  87.68  |
 | ^1A   |   12   |    15.1263064  |     411.60774  |   3319840.501  |  87.66  |
 | ^1A   |   13   |    15.1427818  |     412.05605  |   3323456.415  |  87.75  |
 | ^1A   |   14   |    15.2111382  |     413.91613  |   3338458.919  |  87.80  |
 | ^1A   |   15   |    15.2913322  |     416.09831  |   3356059.458  |  87.35  |
 +=============================================================================+
                                                                                
                                                                                
     Total energies in Hartree:                                                 
             1 ^1A       -347.0836888566                                        
             2 ^1A       -347.0347050328                                        
             3 ^1A       -347.0123400220                                        
             4 ^1A       -346.9507671628                                        
             5 ^1A       -346.9100740398                                        
             6 ^1A       -346.8981475214                                        
             7 ^1A       -346.8924675788                                        
             8 ^1A       -346.8480853264                                        
             9 ^1A       -346.8331978499                                        
            10 ^1A       -346.7996113783                                        
            11 ^1A       -346.7925084737                                        
            12 ^1A       -346.7892092124                                        
            13 ^1A       -346.7727338960                                        
            14 ^1A       -346.7043774568                                        
            15 ^1A       -346.6241835006                                        
                                                                                
                                                                                
 +=============================================================================+
 |  sym. | Exci.  |        CCSD       Length   Gauge Oscillator Strength       |
 |(spin, |        +------------------------------------------------------------+
 | spat) |        | Dipole Strength(a.u.) | Oscillator strength  | Direction   |
 +=============================================================================+
 | ^1A   |    1   |        0.0008535      |      0.0084397       |  (Y,Z)      |
 | ^1A   |    2   |        0.0041129      |      0.0408024       |  (Y,Z)      |
 | ^1A   |    3   |        0.0035961      |      0.0357285       |  (Y,Z)      |
 | ^1A   |    4   |        0.0014009      |      0.0139758       |  (Y,Z)      |
 | ^1A   |    5   |        0.0001718      |      0.0017183       |  (Y,Z)      |
 | ^1A   |    6   |        0.0001290      |      0.0012913       |  (Y,Z)      |
 | ^1A   |    7   |        0.0002590      |      0.0025938       |  (Y,Z)      |
 | ^1A   |    8   |        0.0010069      |      0.0101138       |  (Y,Z)      |
 | ^1A   |    9   |        0.0001835      |      0.0018446       |  (Y,Z)      |
 | ^1A   |   10   |        0.0006084      |      0.0061311       |  (Y,Z)      |
 | ^1A   |   11   |        0.0002138      |      0.0021556       |  (Y,Z)      |
 | ^1A   |   12   |        0.0002031      |      0.0020484       |  (Y,Z)      |
 | ^1A   |   13   |        0.0002675      |      0.0027005       |  (Y,Z)      |
 | ^1A   |   14   |        0.0001430      |      0.0014502       |  (Y,Z)      |
 | ^1A   |   15   |        0.0002992      |      0.0030506       |  (Y,Z)      |
 +=============================================================================+

  1 a.u. =        27.21138 eV.  
  1 a.u. =    219474.62934 cm-1.
  

 *******************************************************************************
 *******************************************************************************
 *                                                                             *
 *                                                                             *
 *                      END OF COUPLED CLUSTER CALCULATION                     *
 *                                                                             *
 *                                                                             *
 *******************************************************************************
 *******************************************************************************


 CPU and wall time for CC :  614392.966   79303.270

 
     Date and time (Linux)  : Thu Jan  3 19:24:24 2019
     Host name              : n-62-23-32                              


                      .-------------------------------------.
                      | End of Coupled Cluster Section (CC) |
                      `-------------------------------------'

  Total CPU  time used in DALTON: 170 hours 51 minutes 46 seconds
  Total wall time used in DALTON:  22 hours  4 minutes 11 seconds

 
     Date and time (Linux)  : Thu Jan  3 19:24:24 2019
     Host name              : n-62-23-32                              
  

 +---------------------------------------------------------+ 
 | List of selected calculated molecular properties (a.u.) | 
 +---------------------------------------------------------+ 

  Properties are read from unit number                      4

 CCSD       properties :
 #  1 1 CCSD/MM  Ground state Energy =    -362.3276127713
 #  2 1 E_QM/MM  Ground state Energy =      -0.4120971107
 #  3 1 Sy: 1 Sp: 1 Exc:  1 E_tot:   -347.0836888566 w:     14.8318268040 E_grs:   -361.9155156606
 #  4 1 Exctot   Excited state Energy =    -347.0836888566
 #  5 1 Sy: 1 Sp: 1 Exc:  2 E_tot:   -347.0347050328 w:     14.8808106278 E_grs:   -361.9155156606
 #  6 1 Exctot   Excited state Energy =    -347.0347050328
 #  7 1 Sy: 1 Sp: 1 Exc:  3 E_tot:   -347.0123400220 w:     14.9031756386 E_grs:   -361.9155156606
 #  8 1 Exctot   Excited state Energy =    -347.0123400220
 #  9 1 Sy: 1 Sp: 1 Exc:  4 E_tot:   -346.9507671628 w:     14.9647484978 E_grs:   -361.9155156606
 # 10 1 Exctot   Excited state Energy =    -346.9507671628
 # 11 1 Sy: 1 Sp: 1 Exc:  5 E_tot:   -346.9100740398 w:     15.0054416208 E_grs:   -361.9155156606
 # 12 1 Exctot   Excited state Energy =    -346.9100740398
 # 13 1 Sy: 1 Sp: 1 Exc:  6 E_tot:   -346.8981475214 w:     15.0173681392 E_grs:   -361.9155156606
 # 14 1 Exctot   Excited state Energy =    -346.8981475214
 # 15 1 Sy: 1 Sp: 1 Exc:  7 E_tot:   -346.8924675788 w:     15.0230480818 E_grs:   -361.9155156606
 # 16 1 Exctot   Excited state Energy =    -346.8924675788
 # 17 1 Sy: 1 Sp: 1 Exc:  8 E_tot:   -346.8480853264 w:     15.0674303342 E_grs:   -361.9155156606
 # 18 1 Exctot   Excited state Energy =    -346.8480853264
 # 19 1 Sy: 1 Sp: 1 Exc:  9 E_tot:   -346.8331978499 w:     15.0823178107 E_grs:   -361.9155156606
 # 20 1 Exctot   Excited state Energy =    -346.8331978499
 # 21 1 Sy: 1 Sp: 1 Exc: 10 E_tot:   -346.7996113783 w:     15.1159042823 E_grs:   -361.9155156606
 # 22 1 Exctot   Excited state Energy =    -346.7996113783
 # 23 1 Sy: 1 Sp: 1 Exc: 11 E_tot:   -346.7925084737 w:     15.1230071869 E_grs:   -361.9155156606
 # 24 1 Exctot   Excited state Energy =    -346.7925084737
 # 25 1 Sy: 1 Sp: 1 Exc: 12 E_tot:   -346.7892092124 w:     15.1263064483 E_grs:   -361.9155156606
 # 26 1 Exctot   Excited state Energy =    -346.7892092124
 # 27 1 Sy: 1 Sp: 1 Exc: 13 E_tot:   -346.7727338960 w:     15.1427817646 E_grs:   -361.9155156606
 # 28 1 Exctot   Excited state Energy =    -346.7727338960
 # 29 1 Sy: 1 Sp: 1 Exc: 14 E_tot:   -346.7043774568 w:     15.2111382038 E_grs:   -361.9155156606
 # 30 1 Exctot   Excited state Energy =    -346.7043774568
 # 31 1 Sy: 1 Sp: 1 Exc: 15 E_tot:   -346.6241835006 w:     15.2913321600 E_grs:   -361.9155156606
 # 32 1 Exctot   Excited state Energy =    -346.6241835006
 # 33 1 |<O|XDIPLEN |i(14.831827)>| =     0.02601686
 # 35 1 |<O|XDIPLEN |i(14.880811)>| =     0.00688685
 # 37 1 |<O|XDIPLEN |i(14.903176)>| =     0.00879396
 # 39 1 |<O|XDIPLEN |i(14.964748)>| =     0.03292183
 # 41 1 |<O|XDIPLEN |i(15.005442)>| =     0.00322068
 # 43 1 |<O|XDIPLEN |i(15.017368)>| =     0.00992014
 # 45 1 |<O|XDIPLEN |i(15.023048)>| =     0.00579174
 # 47 1 |<O|XDIPLEN |i(15.067430)>| =     0.03014149
 # 49 1 |<O|XDIPLEN |i(15.082318)>| =     0.00974309
 # 51 1 |<O|XDIPLEN |i(15.115904)>| =     0.01480102
 # 53 1 |<O|XDIPLEN |i(15.123007)>| =     0.00879789
 # 55 1 |<O|XDIPLEN |i(15.126306)>| =     0.01247683
 # 57 1 |<O|XDIPLEN |i(15.142782)>| =     0.01507226
 # 59 1 |<O|XDIPLEN |i(15.211138)>| =     0.00587835
 # 61 1 |<O|XDIPLEN |i(15.291332)>| =     0.01580283
 # 63 1 |<O|YDIPLEN |i(14.831827)>| =     0.01045955
 # 65 1 |<O|YDIPLEN |i(14.880811)>| =     0.05298182
 # 67 1 |<O|YDIPLEN |i(14.903176)>| =     0.03523952
 # 69 1 |<O|YDIPLEN |i(14.964748)>| =     0.00242118
 # 71 1 |<O|YDIPLEN |i(15.005442)>| =     0.01226649
 # 73 1 |<O|YDIPLEN |i(15.017368)>| =     0.00393491
 # 75 1 |<O|YDIPLEN |i(15.023048)>| =     0.00274084
 # 77 1 |<O|YDIPLEN |i(15.067430)>| =     0.00141365
 # 79 1 |<O|YDIPLEN |i(15.082318)>| =     0.00054962
 # 81 1 |<O|YDIPLEN |i(15.115904)>| =     0.01293357
 # 83 1 |<O|YDIPLEN |i(15.123007)>| =     0.00954464
 # 85 1 |<O|YDIPLEN |i(15.126306)>| =     0.00079828
 # 87 1 |<O|YDIPLEN |i(15.142782)>| =     0.00376839
 # 89 1 |<O|YDIPLEN |i(15.211138)>| =     0.00716047
 # 91 1 |<O|YDIPLEN |i(15.291332)>| =     0.00426742
 # 93 1 |<O|ZDIPLEN |i(14.831827)>| =     0.00820135
 # 95 1 |<O|ZDIPLEN |i(14.880811)>| =     0.03547414
 # 97 1 |<O|ZDIPLEN |i(14.903176)>| =     0.04771688
 # 99 1 |<O|ZDIPLEN |i(14.964748)>| =     0.01763974
 #101 1 |<O|ZDIPLEN |i(15.005442)>| =     0.00330586
 #103 1 |<O|ZDIPLEN |i(15.017368)>| =     0.00388414
 #105 1 |<O|ZDIPLEN |i(15.023048)>| =     0.01476231
 #107 1 |<O|ZDIPLEN |i(15.067430)>| =     0.00981557
 #109 1 |<O|ZDIPLEN |i(15.082318)>| =     0.00939261
 #111 1 |<O|ZDIPLEN |i(15.115904)>| =     0.01490182
 #113 1 |<O|ZDIPLEN |i(15.123007)>| =     0.00673106
 #115 1 |<O|ZDIPLEN |i(15.126306)>| =     0.00684286
 #117 1 |<O|ZDIPLEN |i(15.142782)>| =     0.00511200
 #119 1 |<O|ZDIPLEN |i(15.211138)>| =     0.00756198
 #121 1 |<O|ZDIPLEN |i(15.291332)>| =     0.00559492

 THE_END   
