

     ************************************************************************
     *************** Dalton - An Electronic Structure Program ***************
     ************************************************************************

    This is output from DALTON release Dalton2017.alpha (2016)
         ( Web site: http://daltonprogram.org )

   ----------------------------------------------------------------------------

    NOTE:
     
    Dalton is an experimental code for the evaluation of molecular
    properties using (MC)SCF, DFT, CI, and CC wave functions.
    The authors accept no responsibility for the performance of
    the code or for the correctness of the results.
     
    The code (in whole or part) is provided under a licence and
    is not to be reproduced for further distribution without
    the written permission of the authors or their representatives.
     
    See the home page "http://daltonprogram.org" for further information.
     
    If results obtained with this code are published,
    the appropriate citations would be both of:
     
       K. Aidas, C. Angeli, K. L. Bak, V. Bakken, R. Bast,
       L. Boman, O. Christiansen, R. Cimiraglia, S. Coriani,
       P. Dahle, E. K. Dalskov, U. Ekstroem,
       T. Enevoldsen, J. J. Eriksen, P. Ettenhuber, B. Fernandez,
       L. Ferrighi, H. Fliegl, L. Frediani, K. Hald, A. Halkier,
       C. Haettig, H. Heiberg, T. Helgaker, A. C. Hennum,
       H. Hettema, E. Hjertenaes, S. Hoest, I.-M. Hoeyvik,
       M. F. Iozzi, B. Jansik, H. J. Aa. Jensen, D. Jonsson,
       P. Joergensen, J. Kauczor, S. Kirpekar,
       T. Kjaergaard, W. Klopper, S. Knecht, R. Kobayashi, H. Koch,
       J. Kongsted, A. Krapp, K. Kristensen, A. Ligabue,
       O. B. Lutnaes, J. I. Melo, K. V. Mikkelsen, R. H. Myhre,
       C. Neiss, C. B. Nielsen, P. Norman, J. Olsen,
       J. M. H. Olsen, A. Osted, M. J. Packer, F. Pawlowski,
       T. B. Pedersen, P. F. Provasi, S. Reine, Z. Rinkevicius,
       T. A. Ruden, K. Ruud, V. Rybkin, P. Salek, C. C. M. Samson,
       A. Sanchez de Meras, T. Saue, S. P. A. Sauer,
       B. Schimmelpfennig, K. Sneskov, A. H. Steindal,
       K. O. Sylvester-Hvid, P. R. Taylor, A. M. Teale,
       E. I. Tellgren, D. P. Tew, A. J. Thorvaldsen, L. Thoegersen,
       O. Vahtras, M. A. Watson, D. J. D. Wilson, M. Ziolkowski
       and H. Agren,
       "The Dalton quantum chemistry program system",
       WIREs Comput. Mol. Sci. 2014, 4:269–284 (doi: 10.1002/wcms.1172)
     
    and
     
       Dalton, a Molecular Electronic Structure Program,
       Release Dalton2017.alpha (2016), see http://daltonprogram.org
   ----------------------------------------------------------------------------

    Authors in alphabetical order (major contribution(s) in parenthesis):

  Kestutis Aidas,           Vilnius University,           Lithuania   (QM/MM)
  Celestino Angeli,         University of Ferrara,        Italy       (NEVPT2)
  Keld L. Bak,              UNI-C,                        Denmark     (AOSOPPA, non-adiabatic coupling, magnetic properties)
  Vebjoern Bakken,          University of Oslo,           Norway      (DALTON; geometry optimizer, symmetry detection)
  Radovan Bast,             UiT The Arctic U. of Norway,  Norway      (DALTON installation and execution frameworks)
  Pablo Baudin,             University of Valencia,       Spain       (Cholesky excitation energies)
  Linus Boman,              NTNU,                         Norway      (Cholesky decomposition and subsystems)
  Ove Christiansen,         Aarhus University,            Denmark     (CC module)
  Renzo Cimiraglia,         University of Ferrara,        Italy       (NEVPT2)
  Sonia Coriani,            University of Trieste,        Italy       (CC module, MCD in RESPONS)
  Janusz Cukras,            University of Trieste,        Italy       (MChD in RESPONS)
  Paal Dahle,               University of Oslo,           Norway      (Parallelization)
  Erik K. Dalskov,          UNI-C,                        Denmark     (SOPPA)
  Thomas Enevoldsen,        Univ. of Southern Denmark,    Denmark     (SOPPA)
  Janus J. Eriksen,         Aarhus University,            Denmark     (Polarizable embedding model, TDA)
  Rasmus Faber,             University of Copenhagen,     Denmark     (Vib.avg. NMR with SOPPA, parallel AO-SOPPA)
  Berta Fernandez,          U. of Santiago de Compostela, Spain       (doublet spin, ESR in RESPONS)
  Lara Ferrighi,            Aarhus University,            Denmark     (PCM Cubic response)
  Heike Fliegl,             University of Oslo,           Norway      (CCSD(R12))
  Luca Frediani,            UiT The Arctic U. of Norway,  Norway      (PCM)
  Bin Gao,                  UiT The Arctic U. of Norway,  Norway      (Gen1Int library)
  Christof Haettig,         Ruhr-University Bochum,       Germany     (CC module)
  Kasper Hald,              Aarhus University,            Denmark     (CC module)
  Asger Halkier,            Aarhus University,            Denmark     (CC module)
  Frederik Beyer Hansen,    University of Copenhagen,     Denmark     (Parallel AO-SOPPA)
  Erik D. Hedegaard,        Univ. of Southern Denmark,    Denmark     (Polarizable embedding model, QM/MM)
  Hanne Heiberg,            University of Oslo,           Norway      (geometry analysis, selected one-electron integrals)
  Trygve Helgaker,          University of Oslo,           Norway      (DALTON; ABACUS, ERI, DFT modules, London, and much more)
  Alf Christian Hennum,     University of Oslo,           Norway      (Parity violation)
  Hinne Hettema,            University of Auckland,       New Zealand (quadratic response in RESPONS; SIRIUS supersymmetry)
  Eirik Hjertenaes,         NTNU,                         Norway      (Cholesky decomposition)
  Pi A. B. Haase,           University of Copenhagen,     Denmark     (Triplet AO-SOPPA)
  Maria Francesca Iozzi,    University of Oslo,           Norway      (RPA)
  Brano Jansik              Technical Univ. of Ostrava    Czech Rep.  (DFT cubic response)
  Hans Joergen Aa. Jensen,  Univ. of Southern Denmark,    Denmark     (DALTON; SIRIUS, RESPONS, ABACUS modules, London, and much more)
  Dan Jonsson,              UiT The Arctic U. of Norway,  Norway      (cubic response in RESPONS module)
  Poul Joergensen,          Aarhus University,            Denmark     (RESPONS, ABACUS, and CC modules)
  Maciej Kaminski,          University of Warsaw,         Poland      (CPPh in RESPONS)
  Joanna Kauczor,           Linkoeping University,        Sweden      (Complex polarization propagator (CPP) module)
  Sheela Kirpekar,          Univ. of Southern Denmark,    Denmark     (Mass-velocity & Darwin integrals)
  Wim Klopper,              KIT Karlsruhe,                Germany     (R12 code in CC, SIRIUS, and ABACUS modules)
  Stefan Knecht,            ETH Zurich,                   Switzerland (Parallel CI and MCSCF)
  Rika Kobayashi,           Australian National Univ.,    Australia   (DIIS in CC, London in MCSCF)
  Henrik Koch,              NTNU,                         Norway      (CC module, Cholesky decomposition)
  Jacob Kongsted,           Univ. of Southern Denmark,    Denmark     (Polarizable embedding model, QM/MM)
  Andrea Ligabue,           University of Modena,         Italy       (CTOCD, AOSOPPA)
  Nanna H. List             Univ. of Southern Denmark,    Denmark     (Polarizable embedding model)
  Ola B. Lutnaes,           University of Oslo,           Norway      (DFT Hessian)
  Juan I. Melo,             University of Buenos Aires,   Argentina   (LRESC, Relativistic Effects on NMR Shieldings)
  Kurt V. Mikkelsen,        University of Copenhagen,     Denmark     (MC-SCRF and QM/MM)
  Rolf H. Myhre,            NTNU,                         Norway      (Cholesky, subsystems and ECC2)
  Christian Neiss,          Univ. Erlangen-Nuernberg,     Germany     (CCSD(R12))
  Christian B. Nielsen,     University of Copenhagen,     Denmark     (QM/MM)
  Patrick Norman,           Linkoeping University,        Sweden      (Cubic response and complex frequency response in RESPONS)
  Jeppe Olsen,              Aarhus University,            Denmark     (SIRIUS CI/density modules)
  Jogvan Magnus H. Olsen,   Univ. of Southern Denmark,    Denmark     (Polarizable embedding model, QM/MM)
  Anders Osted,             Copenhagen University,        Denmark     (QM/MM)
  Martin J. Packer,         University of Sheffield,      UK          (SOPPA)
  Filip Pawlowski,          Kazimierz Wielki University,  Poland      (CC3)
  Morten N. Pedersen,       Univ. of Southern Denmark,    Denmark     (Polarizable embedding model)
  Thomas B. Pedersen,       University of Oslo,           Norway      (Cholesky decomposition)
  Patricio F. Provasi,      University of Northeastern,   Argentina   (Analysis of coupling constants in localized orbitals)
  Zilvinas Rinkevicius,     KTH Stockholm,                Sweden      (open-shell DFT, ESR)
  Elias Rudberg,            KTH Stockholm,                Sweden      (DFT grid and basis info)
  Torgeir A. Ruden,         University of Oslo,           Norway      (Numerical derivatives in ABACUS)
  Kenneth Ruud,             UiT The Arctic U. of Norway,  Norway      (DALTON; ABACUS magnetic properties and much more)
  Pawel Salek,              KTH Stockholm,                Sweden      (DALTON; DFT code)
  Claire C. M. Samson       University of Karlsruhe       Germany     (Boys localization, r12 integrals in ERI)
  Alfredo Sanchez de Meras, University of Valencia,       Spain       (CC module, Cholesky decomposition)
  Trond Saue,               Paul Sabatier University,     France      (direct Fock matrix construction)
  Stephan P. A. Sauer,      University of Copenhagen,     Denmark     (SOPPA(CCSD), SOPPA prop., AOSOPPA, vibrational g-factors)
  Bernd Schimmelpfennig,    Forschungszentrum Karlsruhe,  Germany     (AMFI module)
  Kristian Sneskov,         Aarhus University,            Denmark     (Polarizable embedding model, QM/MM)
  Arnfinn H. Steindal,      UiT The Arctic U. of Norway,  Norway      (parallel QM/MM, Polarizable embedding model)
  Casper Steinmann,         Univ. of Southern Denmark,    Denmark     (QFIT, Polarizable embedding model)
  K. O. Sylvester-Hvid,     University of Copenhagen,     Denmark     (MC-SCRF)
  Peter R. Taylor,          VLSCI/Univ. of Melbourne,     Australia   (Symmetry handling ABACUS, integral transformation)
  Andrew M. Teale,          University of Nottingham,     England     (DFT-AC, DFT-D)
  David P. Tew,             University of Bristol,        England     (CCSD(R12))
  Olav Vahtras,             KTH Stockholm,                Sweden      (triplet response, spin-orbit, ESR, TDDFT, open-shell DFT)
  David J. Wilson,          La Trobe University,          Australia   (DFT Hessian and DFT magnetizabilities)
  Hans Agren,               KTH Stockholm,                Sweden      (SIRIUS module, RESPONS, MC-SCRF solvation model)
 --------------------------------------------------------------------------------

     Date and time (Linux)  : Sat Dec 22 15:38:15 2018
     Host name              : n-62-30-16                              

 * Work memory size             :  1280000000 =  9.537 gigabytes.

 * Directories for basis set searches:
   1) /zhome/37/3/129401/NH3NH4/CCSD/AIMD_SAMPLING/nh3_4h2o_nd
   2) /zhome/9a/4/124800/source/dalton/build-mlcc/basis


Compilation information
-----------------------

 Who compiled             | rfaber
 Host                     | hpclogin1
 System                   | Linux-2.6.32-696.1.1.el6.x86_64
 CMake generator          | Unix Makefiles
 Processor                | x86_64
 64-bit integers          | ON
 MPI                      | OFF
 Fortran compiler         | /opt/intel/2016update2/compilers_and_libraries_201
                          | 6.2.181/linux/bin/intel64/ifort
 Fortran compiler version | ifort (IFORT) 16.0.2 20160204
 C compiler               | /opt/intel/2016update2/compilers_and_libraries_201
                          | 6.2.181/linux/bin/intel64/icc
 C compiler version       | icc (ICC) 16.0.2 20160204
 C++ compiler             | /opt/intel/2016update2/compilers_and_libraries_201
                          | 6.2.181/linux/bin/intel64/icpc
 C++ compiler version     | icpc (ICC) 16.0.2 20160204
 Static linking           | OFF
 Last Git revision        | bb4d1599ca5680a9f3980451fc8bbefdba436d59
 Git branch               | mlcc
 Configuration time       | 2017-06-13 16:11:03.928841


   Content of the .dal input file
 ----------------------------------

**DALTON
.RUN WAVE FUNCTIONS
*QMMM
.QMMM
**INTEGRALS
.DIPLEN
**WAVE FUNCTIONS
.CC
*PRINT
!To check the origin of excit
.PRINTL
   0 11
*SCF INP
.THRESH
1.0D-7
*CC INP
.CCSD
.THRLEQ
 1.0D-9
.THRENR
 1.0D-10
.FROIMP
4
0
.PRINT
 1
.MAX IT
 1200
.MAXRED
 1200
.MXLRV
1199
*CCSLV
.CCMM
.MXSLIT
200
.MXINIT
4 5
*CCEXCI
.NCCEXC
 15
.CVSEPARA
1
1
*CCLRSD
.DIPOLE
**END OF DALTON INPUT


   Content of the .mol file
 ----------------------------

ATOMBASIS


Atomtypes=4 Charge=0 Nosymm Angstrom
   7.00000    1    Basis=6-311G**
N          0.000000        0.000000        0.000000
   1.00000    3    Basis=6-311G**
H          0.952495        0.071942        0.352587
H         -0.642637        0.119624        0.776329
H         -0.024104       -0.984571       -0.314567
   8.00000    4    Basis=6-311G**
O          2.120732        0.486727        2.307856
O         -0.812698        1.883092       -2.130960
O          0.944687       -3.152936        0.389447
O         -0.213533        1.847675        2.494974
   1.00000    8    Basis=6-311G**
H          1.216140        0.890077        2.370407
H          2.759315        1.047322        2.864391
H         -0.233160        1.951261       -2.876249
H         -0.388908        1.220113       -1.480949
H          1.896226       -2.894782       -0.108221
H          0.489278       -3.906487       -0.005883
H         -0.905712        1.242364        2.831351
H          0.189465        2.213013        3.331293


       *******************************************************************
       *********** Output from DALTON general input processing ***********
       *******************************************************************

 --------------------------------------------------------------------------------
   Overall default print level:    0
   Print level for DALTON.STAT:    1

    HERMIT 1- and 2-electron integral sections will be executed
    "Old" integral transformation used (limited to max 255 basis functions)
    Wave function sections will be executed (SIRIUS module)
 --------------------------------------------------------------------------------


 Changes of defaults for *QMMM  :
 --------------------------------

 +------------------+
 |  WORD: | CHANGE: |
 +------------------+
 |   QMMM |       T |
 +------------------+
 


   ****************************************************************************
   *************** Output of molecule and basis set information ***************
   ****************************************************************************


    The two title cards from your ".mol" input:
    ------------------------------------------------------------------------
 1:                                                                         
 2:                                                                         
    ------------------------------------------------------------------------

  Coordinates are entered in Angstrom and converted to atomic units.
          - Conversion factor : 1 bohr = 0.52917721 A

  Atomic type no.    1
  --------------------
  Nuclear charge:   7.00000
  Number of symmetry independent centers:    1
  Number of basis sets to read;    2
  The basis set is "6-311G**" from the basis set library.
  Basis set file used for this atomic type with Z =   7 :
     "/zhome/9a/4/124800/source/dalton/build-mlcc/basis/6-311G**"

  Info about the basis set file: your basis has no documentation.
  Basis set: 6-311G**                                                                        

  Atomic type no.    2
  --------------------
  Nuclear charge:   1.00000
  Number of symmetry independent centers:    3
  Number of basis sets to read;    2
  The basis set is "6-311G**" from the basis set library.
  Basis set file used for this atomic type with Z =   1 :
     "/zhome/9a/4/124800/source/dalton/build-mlcc/basis/6-311G**"

  Info about the basis set file: your basis has no documentation.
  Basis set: 6-311G**                                                                        

  Atomic type no.    3
  --------------------
  Nuclear charge:   8.00000
  Number of symmetry independent centers:    4
  Number of basis sets to read;    2
  The basis set is "6-311G**" from the basis set library.
  Basis set file used for this atomic type with Z =   8 :
     "/zhome/9a/4/124800/source/dalton/build-mlcc/basis/6-311G**"

  Info about the basis set file: your basis has no documentation.
  Basis set: 6-311G**                                                                        

  Atomic type no.    4
  --------------------
  Nuclear charge:   1.00000
  Number of symmetry independent centers:    8
  Number of basis sets to read;    2
  The basis set is "6-311G**" from the basis set library.
  Basis set file used for this atomic type with Z =   1 :
     "/zhome/9a/4/124800/source/dalton/build-mlcc/basis/6-311G**"

  Info about the basis set file: your basis has no documentation.
  Basis set: 6-311G**                                                                        


                         SYMGRP: Point group information
                         -------------------------------

@    Point group: C1 


                                 Isotopic Masses
                                 ---------------

                           N          14.003074
                           H           1.007825
                           H           1.007825
                           H           1.007825
                           O          15.994915
                           O          15.994915
                           O          15.994915
                           O          15.994915
                           H           1.007825
                           H           1.007825
                           H           1.007825
                           H           1.007825
                           H           1.007825
                           H           1.007825
                           H           1.007825
                           H           1.007825

                       Total mass:    89.068809 amu
                       Natural abundance:  98.514 %

 Center-of-mass coordinates (a.u.):    0.805517    0.382002    1.204386


  Atoms and basis sets
  --------------------

  Number of atom types :    4
  Total number of atoms:   16

  label    atoms   charge   prim   cont     basis
  ----------------------------------------------------------------------
  N           1    7.0000    31    18      [11s5p1d|4s3p1d]                                   
  H           3    1.0000     8     6      [5s1p|3s1p]                                        
  O           4    8.0000    31    18      [11s5p1d|4s3p1d]                                   
  H           8    1.0000     8     6      [5s1p|3s1p]                                        
  ----------------------------------------------------------------------
  total:     16   50.0000   243   156
  ----------------------------------------------------------------------
  Spherical harmonic basis used.

  Threshold for neglecting AO integrals:  1.00D-12


  Cartesian Coordinates (a.u.)
  ----------------------------

  Total number of coordinates:   48
  N       :     1  x   0.0000000000    2  y   0.0000000000    3  z   0.0000000000
  H       :     4  x   1.7999546854    5  y   0.1359506769    6  z   0.6662928652
  H       :     7  x  -1.2144079278    8  y   0.2260565980    9  z   1.4670491929
  H       :    10  x  -0.0455499585   11  y  -1.8605695406   12  z  -0.5944454780
  O       :    13  x   4.0076026645   14  y   0.9197807276   15  z   4.3612157759
  O       :    16  x  -1.5357766423   17  y   3.5585281482   18  z  -4.0269307833
  O       :    19  x   1.7851997038   20  y  -5.9581855296   21  z   0.7359481702
  O       :    22  x  -0.4035188886   23  y   3.4915997180   24  z   4.7148175490
  H       :    25  x   2.2981715296   26  y   1.6820017602   27  z   4.4794200348
  H       :    28  x   5.2143496426   29  y   1.9791517447   30  z   5.4129145049
  H       :    31  x  -0.4406085433   32  y   3.6873488884   33  z  -5.4353228773
  H       :    34  x  -0.7349296078   35  y   2.3056794115   36  z  -2.7985880151
  H       :    37  x   3.5833478111   38  y  -5.4703451716   39  z  -0.2045080510
  H       :    40  x   0.9246014190   41  y  -7.3821905408   42  z  -0.0111172588
  H       :    43  x  -1.7115476281   44  y   2.3477277076   45  z   5.3504779537
  H       :    46  x   0.3580369603   47  y   4.1819884811   48  z   6.2952314121


   Interatomic separations (in Angstrom):
   --------------------------------------

            N           H           H           H           O           O     
            ------      ------      ------      ------      ------      ------
 N     :    0.000000
 H     :    1.018204    0.000000
 H     :    1.014879    1.651144    0.000000
 H     :    1.033883    1.585894    1.670893    0.000000
 O     :    3.171846    2.315146    3.180652    3.693527    0.000000
 O     :    2.957618    3.544598    3.404566    3.484918    5.500721    0.000000
 O     :    3.314379    3.225098    3.657721    2.477095    4.279080    5.899359
 O     :    3.111976    3.017063    2.474678    3.993873    2.708502    4.664710
 H     :    2.808926    2.193274    2.567048    3.501656    0.992417    5.036325
 H     :    4.112838    3.244245    4.098037    4.688474    1.015769    6.197687
 H     :    3.483474    3.919566    4.106567    3.901926    5.878827    0.946555
 H     :    1.957839    2.545489    2.524036    2.520746    4.603389    1.020614
 H     :    3.462246    3.147129    4.039170    2.716459    4.162023    5.853018
 H     :    3.937013    4.021314    4.254722    2.982690    5.226410    6.303199
 H     :    3.221852    3.311660    2.356453    3.953893    3.162973    5.004370
 H     :    4.003853    3.746877    3.406246    4.854117    2.785189    5.563217

            O           O           H           H           H           H     
            ------      ------      ------      ------      ------      ------
 O     :    0.000000
 O     :    5.548047    0.000000
 H     :    4.510415    1.725247    0.000000
 H     :    5.201960    3.100784    1.627924    0.000000
 H     :    6.172918    5.372258    5.545627    6.536586    0.000000
 H     :    4.939678    4.028964    4.185456    5.368719    1.582939    0.000000
 H     :    1.104420    5.806772    4.575071    5.012138    5.973307    4.902916
 H     :    0.965154    6.313368    5.402047    6.158877    6.563088    5.406390
 H     :    5.357755    0.979113    2.199734    3.670362    5.790644    4.343215
 H     :    6.165892    0.997652    1.930679    2.860238    6.227415    4.947529

            H           H           H           H     
            ------      ------      ------      ------
 H     :    0.000000
 H     :    1.735950    0.000000
 H     :    5.797234    6.042066    0.000000
 H     :    6.390059    6.976741    1.546452    0.000000


  Max    interatomic separation is    6.9767 Angstrom (   13.1841 Bohr)
  between atoms   16 and   14, "H     " and "H     ".

  Min HX interatomic separation is    0.9466 Angstrom (    1.7887 Bohr)

  Min YX interatomic separation is    2.7085 Angstrom (    5.1183 Bohr)


  Bond distances (Angstrom):
  --------------------------

                  atom 1     atom 2       distance
                  ------     ------       --------
  bond distance:  H          N            1.018204
  bond distance:  H          N            1.014879
  bond distance:  H          N            1.033883
  bond distance:  H          O            0.992417
  bond distance:  H          O            1.015769
  bond distance:  H          O            0.946555
  bond distance:  H          O            1.020614
  bond distance:  H          O            1.104420
  bond distance:  H          O            0.965154
  bond distance:  H          O            0.979113
  bond distance:  H          O            0.997652


  Bond angles (degrees):
  ----------------------

                  atom 1     atom 2     atom 3         angle
                  ------     ------     ------         -----
  bond angle:     H          N          H            108.611
  bond angle:     H          N          H            101.213
  bond angle:     H          N          H            109.283
  bond angle:     H          O          H            108.312
  bond angle:     H          O          H            107.098
  bond angle:     H          O          H            113.857
  bond angle:     H          O          H            102.942




 Principal moments of inertia (u*A**2) and principal axes
 --------------------------------------------------------

   IA     331.558613         -0.398551    0.818648   -0.413489
   IB     382.493681          0.185729    0.513543    0.837722
   IC     633.969856          0.898144    0.257078   -0.356720


 Rotational constants
 --------------------

               A                   B                   C

           1524.2524           1321.2741            797.1657 MHz
            0.050844            0.044073            0.026591 cm-1


@  Nuclear repulsion energy :  185.397061018901 Hartree


                     .---------------------------------------.
                     | Starting in Integral Section (HERMIT) |
                     `---------------------------------------'



 ***************************************************************************************
 ****************** Output from **INTEGRALS input processing (HERMIT) ******************
 ***************************************************************************************



    *************************************************************************
    ****************** Output from HERMIT input processing ******************
    *************************************************************************


 Default print level:        1

 * Nuclear model: Point charge

 Calculation of one- and two-electron Hamiltonian integrals.

 The following one-electron property integrals are calculated as requested:
          - overlap integrals
          - dipole length integrals

 Center of mass  (bohr):      0.805516873443      0.382002201133      1.204386354013
 Operator center (bohr):      0.000000000000      0.000000000000      0.000000000000
 Gauge origin    (bohr):      0.000000000000      0.000000000000      0.000000000000
 Dipole origin   (bohr):      0.000000000000      0.000000000000      0.000000000000
 
  *********************************** 
  QMMM electrostatic potential: 
  Multipole order                                    0
  Isotropic polarization  
  *********************************** 
 
  ---------------- 
  QMMM information 
  ---------------- 
 
  MM coordinates in au 
  -------------------- 
     1     10.054464      9.512095     -9.769601
     2     11.399771      8.744847    -10.939553
     3      9.069106     10.755773    -10.739489
     4     -6.730447     -8.038285      4.307463
     5     -5.557320     -9.361580      4.801409
     6     -7.006292     -7.128268      5.948795
     7     -7.998056     -4.210365      7.966377
     8     -7.965621     -5.337719      9.403925
     9     -9.728633     -3.821640      7.436180
    10    -10.427178      7.623146      8.787914
    11     -8.782260      8.404816      8.458229
    12    -10.776347      6.099977      7.813889
    13     -6.697057     -0.926504      1.506329
    14     -8.411604     -0.293645      1.792521
    15     -6.246603      0.137073     -0.039939
    16      0.555217     -2.849539     -5.304922
    17      0.081031     -1.787855     -6.742414
    18     -0.731793     -4.124010     -5.155674
    19      8.614685      6.502113     -5.653358
    20      7.400007      7.109008     -4.448187
    21      8.884674      7.747065     -7.082197
    22      1.467809     -6.380870    -10.350988
    23     -0.270437     -5.890288    -10.042133
    24      1.152251     -7.708240    -11.560921
    25      7.112914     -6.175833     11.585178
    26      7.205569     -6.251392     13.333259
    27      5.924915     -4.820109     11.082718
    28     -9.834664      4.861506     -5.352757
    29    -11.480343      5.616793     -4.966777
    30    -10.150123      4.318606     -7.135751
    31     -7.612221     -1.640432     -7.319588
    32     -6.875776     -0.662443     -5.829503
    33     -9.258666     -2.285010     -6.771807
    34     -3.127098     -7.226239     -4.805933
    35     -2.183057     -8.609107     -4.247125
    36     -3.691493     -6.577866     -3.218527
    37     -4.791469      3.418798     10.263499
    38     -4.306298      5.222200     10.583029
    39     -5.232429      3.498854      8.486717
    40     10.062066      1.016238     -2.514231
    41     10.863083      2.202918     -3.735715
    42      8.710354      1.988009     -1.725146
    43     10.806123     10.186871      0.127804
    44     11.568344     11.388663      1.371386
    45     11.104872     11.098169     -1.427546
    46      6.046309      8.485639      5.420145
    47      5.245090      8.940349      3.743164
    48      7.101627      6.940873      5.172090
    49     -0.623549      0.723385    -11.059548
    50      0.708205     -0.144092    -12.113736
    51     -2.045542      1.573159    -11.953289
    52     -6.243011     10.224133      8.973992
    53     -5.442302      9.637070     10.673460
    54     -7.143518     11.800644      9.678597
    55     -9.508200      6.333971      0.900625
    56    -10.632846      7.777177      0.622748
    57     -8.302389      6.892426      2.195359
    58     10.195568     -3.630820      7.918429
    59     10.466985     -1.889635      8.617276
    60      9.746890     -4.811942      9.311822
    61      0.609601     -8.418237      8.097711
    62      2.280397     -8.729871      7.352068
    63      0.188920     -6.681074      7.482692
    64     10.094539     11.526012      7.425144
    65      8.419172     10.842194      7.112396
    66     11.252249     10.256729      8.164962
    67      0.983412      8.711934    -10.895773
    68      2.247631     10.084489    -11.077404
    69      1.597368      7.731395     -9.514497
    70      8.235200     -7.043136     -7.054726
    71      9.053598     -5.496276     -6.399809
    72      9.459241     -8.384923     -6.797283
    73      3.496778     11.487012      1.818638
    74      4.346425     13.109155      2.390173
    75      2.076070     11.996229      0.609962
    76      3.343500     -2.296114     10.021140
    77      2.479922     -3.570932     11.044070
    78      2.788244     -2.520146      8.307404
    79     -4.085975      8.300055    -10.637875
    80     -4.848714      8.106865     -8.869779
    81     -2.236325      8.646380    -10.588908
    82     -5.857378      1.689651     -3.296544
    83     -7.000422      3.066595     -3.533079
    84     -4.128819      2.429339     -3.625578
    85      6.525672     -5.042810     -1.435058
    86      7.250856     -4.169994      0.035597
    87      6.113959     -3.630578     -2.462028
    88      4.495335    -11.013484    -10.969405
    89      4.701023    -10.243434     -9.271219
    90      5.194209     -9.731152    -12.145848
    91      2.105170      3.726517     -7.784011
    92      1.288069      2.834313     -9.166727
    93      3.914570      3.076132     -8.030438
    94     -7.096284     -9.842238     -6.857493
    95     -5.794520     -8.654033     -6.586410
    96     -6.511792    -11.609429     -6.635235
    97      6.230818      8.183019     -0.622642
    98      4.910506      9.488846      0.088704
    99      7.807664      8.959212     -0.054630
   100      4.758338     -0.787445     -3.964757
   101      2.907115     -1.223853     -3.864753
   102      5.009762      0.633342     -2.814386
   103      3.643411     -9.595668     -6.257206
   104      2.726006     -8.303417     -7.034541
   105      4.898535     -8.545565     -5.419908
   106     -3.976885     -0.408718      5.858287
   107     -5.111505     -1.380660      7.037803
   108     -4.990935     -0.457353      4.271924
   109     -9.153554      2.537900     -9.702217
   110     -7.955624      3.032249    -10.965512
   111     -8.521896      0.854236     -8.939595
   112     -3.165866     -3.713559     -9.843948
   113     -2.751332     -1.980873    -10.153636
   114     -4.549523     -3.906884     -8.588261
   115     -5.925580      8.417698     -5.790988
   116     -7.230069      7.120284     -5.467828
   117     -4.914962      8.567988     -4.220393
   118    -10.539235     -5.894923     -1.189605
   119     -8.732513     -5.898856     -0.865247
   120    -11.633468     -6.326032      0.329003
   121      0.091877    -10.739280     -2.131528
   122     -0.599393    -12.493227     -2.230359
   123      1.497462    -10.931476     -3.339537
   124     11.649814    -10.177445     -4.349705
   125     12.568941     -8.862846     -3.356524
   126     13.044415    -10.966755     -5.407774
   127     -2.413176      8.331553     -2.335958
   128     -1.651358      6.624301     -2.729575
   129     -2.614523      8.319268     -0.417346
   130      1.922721      5.586333      8.400836
   131      1.456170      6.687510      9.882219
   132      3.647627      6.242712      8.218498
   133    -11.460138     -9.359071      3.533232
   134     -9.672854     -9.070502      3.916115
   135    -12.236379     -9.989474      5.148368
   136     -2.036218      8.292725      2.894626
   137     -0.809082      7.024394      3.571836
   138     -1.951516      9.766711      4.139572
   139      6.892954      1.965340     -8.022987
   140      6.458889      0.668778     -6.754837
   141      7.793563      3.200000     -6.884446
   142    -11.185710      1.883269      1.906208
   143    -10.541952      3.675752      1.497275
   144    -11.832577      1.229804      0.269384
   145      5.933852      3.176089     -0.423429
   146      5.907199      5.198270     -0.490318
   147      5.330058      2.438712      1.241635
   148     -9.403814    -10.121740    -11.567409
   149     -8.852704     -9.872245     -9.792236
   150    -11.265115     -9.762333    -11.511168
   151     -5.641178     -5.633017     -0.201466
   152     -5.954355     -3.926469      0.624759
   153     -5.581535     -6.817108      1.283978
   154     10.515893      1.027098     10.436668
   155     11.994436      1.469311     11.294802
   156      9.215610      0.859892     11.813971
   157      9.022051      3.671075      5.659957
   158      9.977586      2.883898      4.180501
   159      9.759710      2.915959      7.182174
   160      0.643431     -3.983034      5.259100
   161     -0.694839     -2.792361      5.349172
   162      0.945097     -4.160567      3.493584
   163     -2.675797    -11.292896      5.827129
   164     -3.589342    -12.153452      7.099196
   165     -1.344858    -10.305810      6.840525
   166     -6.100319      5.453368      5.175862
   167     -4.571316      6.482996      4.721299
   168     -5.877481      4.179730      3.790810
   169      5.017344     -8.233249      5.684776
   170      5.001642     -6.419704      5.059647
   171      6.473533     -8.290593      6.819286
   172      6.782002     -3.438835      3.471542
   173      5.674247     -2.013254      3.646440
   174      7.986277     -3.496299      4.908705
   175     11.302356     -3.006770     -5.282342
   176     11.925555     -3.691501     -3.718854
   177     10.358160     -1.562684     -4.683473
 
  MM charges 
  ---------- 
     1     -0.674440
     2      0.337220
     3      0.337220
     4     -0.674440
     5      0.337220
     6      0.337220
     7     -0.674440
     8      0.337220
     9      0.337220
    10     -0.674440
    11      0.337220
    12      0.337220
    13     -0.674440
    14      0.337220
    15      0.337220
    16     -0.674440
    17      0.337220
    18      0.337220
    19     -0.674440
    20      0.337220
    21      0.337220
    22     -0.674440
    23      0.337220
    24      0.337220
    25     -0.674440
    26      0.337220
    27      0.337220
    28     -0.674440
    29      0.337220
    30      0.337220
    31     -0.674440
    32      0.337220
    33      0.337220
    34     -0.674440
    35      0.337220
    36      0.337220
    37     -0.674440
    38      0.337220
    39      0.337220
    40     -0.674440
    41      0.337220
    42      0.337220
    43     -0.674440
    44      0.337220
    45      0.337220
    46     -0.674440
    47      0.337220
    48      0.337220
    49     -0.674440
    50      0.337220
    51      0.337220
    52     -0.674440
    53      0.337220
    54      0.337220
    55     -0.674440
    56      0.337220
    57      0.337220
    58     -0.674440
    59      0.337220
    60      0.337220
    61     -0.674440
    62      0.337220
    63      0.337220
    64     -0.674440
    65      0.337220
    66      0.337220
    67     -0.674440
    68      0.337220
    69      0.337220
    70     -0.674440
    71      0.337220
    72      0.337220
    73     -0.674440
    74      0.337220
    75      0.337220
    76     -0.674440
    77      0.337220
    78      0.337220
    79     -0.674440
    80      0.337220
    81      0.337220
    82     -0.674440
    83      0.337220
    84      0.337220
    85     -0.674440
    86      0.337220
    87      0.337220
    88     -0.674440
    89      0.337220
    90      0.337220
    91     -0.674440
    92      0.337220
    93      0.337220
    94     -0.674440
    95      0.337220
    96      0.337220
    97     -0.674440
    98      0.337220
    99      0.337220
   100     -0.674440
   101      0.337220
   102      0.337220
   103     -0.674440
   104      0.337220
   105      0.337220
   106     -0.674440
   107      0.337220
   108      0.337220
   109     -0.674440
   110      0.337220
   111      0.337220
   112     -0.674440
   113      0.337220
   114      0.337220
   115     -0.674440
   116      0.337220
   117      0.337220
   118     -0.674440
   119      0.337220
   120      0.337220
   121     -0.674440
   122      0.337220
   123      0.337220
   124     -0.674440
   125      0.337220
   126      0.337220
   127     -0.674440
   128      0.337220
   129      0.337220
   130     -0.674440
   131      0.337220
   132      0.337220
   133     -0.674440
   134      0.337220
   135      0.337220
   136     -0.674440
   137      0.337220
   138      0.337220
   139     -0.674440
   140      0.337220
   141      0.337220
   142     -0.674440
   143      0.337220
   144      0.337220
   145     -0.674440
   146      0.337220
   147      0.337220
   148     -0.674440
   149      0.337220
   150      0.337220
   151     -0.674440
   152      0.337220
   153      0.337220
   154     -0.674440
   155      0.337220
   156      0.337220
   157     -0.674440
   158      0.337220
   159      0.337220
   160     -0.674440
   161      0.337220
   162      0.337220
   163     -0.674440
   164      0.337220
   165      0.337220
   166     -0.674440
   167      0.337220
   168      0.337220
   169     -0.674440
   170      0.337220
   171      0.337220
   172     -0.674440
   173      0.337220
   174      0.337220
   175     -0.674440
   176      0.337220
   177      0.337220
 
  MM isotropic polarizabilities in au 
  ----------------------------------- 
     1      5.739350
     2      2.308390
     3      2.308390
     4      5.739350
     5      2.308390
     6      2.308390
     7      5.739350
     8      2.308390
     9      2.308390
    10      5.739350
    11      2.308390
    12      2.308390
    13      5.739350
    14      2.308390
    15      2.308390
    16      5.739350
    17      2.308390
    18      2.308390
    19      5.739350
    20      2.308390
    21      2.308390
    22      5.739350
    23      2.308390
    24      2.308390
    25      5.739350
    26      2.308390
    27      2.308390
    28      5.739350
    29      2.308390
    30      2.308390
    31      5.739350
    32      2.308390
    33      2.308390
    34      5.739350
    35      2.308390
    36      2.308390
    37      5.739350
    38      2.308390
    39      2.308390
    40      5.739350
    41      2.308390
    42      2.308390
    43      5.739350
    44      2.308390
    45      2.308390
    46      5.739350
    47      2.308390
    48      2.308390
    49      5.739350
    50      2.308390
    51      2.308390
    52      5.739350
    53      2.308390
    54      2.308390
    55      5.739350
    56      2.308390
    57      2.308390
    58      5.739350
    59      2.308390
    60      2.308390
    61      5.739350
    62      2.308390
    63      2.308390
    64      5.739350
    65      2.308390
    66      2.308390
    67      5.739350
    68      2.308390
    69      2.308390
    70      5.739350
    71      2.308390
    72      2.308390
    73      5.739350
    74      2.308390
    75      2.308390
    76      5.739350
    77      2.308390
    78      2.308390
    79      5.739350
    80      2.308390
    81      2.308390
    82      5.739350
    83      2.308390
    84      2.308390
    85      5.739350
    86      2.308390
    87      2.308390
    88      5.739350
    89      2.308390
    90      2.308390
    91      5.739350
    92      2.308390
    93      2.308390
    94      5.739350
    95      2.308390
    96      2.308390
    97      5.739350
    98      2.308390
    99      2.308390
   100      5.739350
   101      2.308390
   102      2.308390
   103      5.739350
   104      2.308390
   105      2.308390
   106      5.739350
   107      2.308390
   108      2.308390
   109      5.739350
   110      2.308390
   111      2.308390
   112      5.739350
   113      2.308390
   114      2.308390
   115      5.739350
   116      2.308390
   117      2.308390
   118      5.739350
   119      2.308390
   120      2.308390
   121      5.739350
   122      2.308390
   123      2.308390
   124      5.739350
   125      2.308390
   126      2.308390
   127      5.739350
   128      2.308390
   129      2.308390
   130      5.739350
   131      2.308390
   132      2.308390
   133      5.739350
   134      2.308390
   135      2.308390
   136      5.739350
   137      2.308390
   138      2.308390
   139      5.739350
   140      2.308390
   141      2.308390
   142      5.739350
   143      2.308390
   144      2.308390
   145      5.739350
   146      2.308390
   147      2.308390
   148      5.739350
   149      2.308390
   150      2.308390
   151      5.739350
   152      2.308390
   153      2.308390
   154      5.739350
   155      2.308390
   156      2.308390
   157      5.739350
   158      2.308390
   159      2.308390
   160      5.739350
   161      2.308390
   162      2.308390
   163      5.739350
   164      2.308390
   165      2.308390
   166      5.739350
   167      2.308390
   168      2.308390
   169      5.739350
   170      2.308390
   171      2.308390
   172      5.739350
   173      2.308390
   174      2.308390
   175      5.739350
   176      2.308390
   177      2.308390


     ************************************************************************
     ************************** Output from HERINT **************************
     ************************************************************************



                      Nuclear contribution to dipole moments
                      --------------------------------------

                 au               Debye          C m (/(10**-30)

      x     40.85947308       103.85441484       346.42103918
      y     17.92658453        45.56483004       151.98791304
      z     60.90780998       154.81220112       516.39791793


  Time used in HUCKEL     is       1.10 seconds
  Time used in OVERLAP    is       0.18 seconds
  Time used in POPOVLP    is       0.29 seconds
  Time used in DIPLEN     is       0.47 seconds
  Time used in QUADRUP    is       0.94 seconds
  Time used in KINENE     is       0.33 seconds

 Threshold for neglecting two-electron integrals:  1.00D-12
 HERMIT - Number of two-electron integrals written:    29250279 ( 39.0% )
 HERMIT - Megabytes written:                            334.933

  Time used in TWOINT     is      14.19 seconds
  Total CPU  time used in HERMIT:  17.57 seconds
  Total wall time used in HERMIT:   6.70 seconds


                        .----------------------------------.
                        | End of Integral Section (HERMIT) |
                        `----------------------------------'



                   .--------------------------------------------.
                   | Starting in Wave Function Section (SIRIUS) |
                   `--------------------------------------------'

NCCEXCI for singlet:   15
 CCSD_INPUT: core-val requested
 Requested number of core orbs per sym
                     1
 Indices of requested core orbs
                     1

 *** Output from Huckel module :

     Using EWMO model:          T
     Using EHT  model:          F
     Number of Huckel orbitals each symmetry:   36

 EWMO - Energy Weighted Maximum Overlap - is a Huckel type method,
        which normally is better than Extended Huckel Theory.
 Reference: Linderberg and Ohrn, Propagators in Quantum Chemistry (Wiley, 1973)

 Huckel EWMO eigenvalues for symmetry :  1
          -20.685390     -20.684609     -20.684011     -20.683545     -15.673779
           -1.756534      -1.630869      -1.569469      -1.503334      -1.474572
           -0.822531      -0.805782      -0.796952      -0.788218      -0.726628
           -0.708461      -0.692690      -0.679575      -0.671209      -0.668968
           -0.616095      -0.610482      -0.600310      -0.577616      -0.519178
           -0.270554      -0.259417      -0.229699      -0.221519      -0.184336
           -0.180569      -0.176529      -0.165081      -0.161150      -0.151695
           -0.144443

 **********************************************************************
 *SIRIUS* a direct, restricted step, second order MCSCF program       *
 **********************************************************************

 
     Date and time (Linux)  : Sat Dec 22 15:38:22 2018
     Host name              : n-62-30-16                              

 Title lines from ".mol" input file:
                                                                             
                                                                             

 Print level on unit LUPRI =   2 is   0
 Print level on unit LUW4  =   2 is  11

@    (Integral direct) CC calculation.

@    This is a combination run starting with
@              a restricted, closed shell Hartree-Fock calculation


 Initial molecular orbitals are obtained according to
 ".MOSTART EWMO  " input option

@    QM part is embedded in an environment :

@         Model: QMMM

     Wave function specification
     ============================

     For the specification of the Coupled Cluster: see later.

@    Wave function type        --- CC ---
@    Number of closed shell electrons          50
@    Number of electrons in active shells       0
@    Total charge of the molecule               0

@    Spin multiplicity and 2 M_S                1         0
@    Total number of symmetries                 1 (point group: C1 )
@    Reference state symmetry                   1 (irrep name : A  )

     Orbital specifications
     ======================
@    Abelian symmetry species          All |    1
@                                          |  A  
                                       --- |  ---
@    Occupied SCF orbitals              25 |   25
@    Secondary orbitals                131 |  131
@    Total number of orbitals          156 |  156
@    Number of basis functions         156 |  156

     Optimization information
     ========================
@    Number of configurations                 1
@    Number of orbital rotations           3275
     ------------------------------------------
@    Total number of variables             3276

     Maximum number of Fock   iterations      0
     Maximum number of DIIS   iterations     60
     Maximum number of QC-SCF iterations     60
     Threshold for SCF convergence     1.00D-07


 Changes of defaults for CC:
 ---------------------------


 -Implicit frozen core calculation
 -Excitation energies calculated
 -One-photon absorption strengths will be calculated
 -Oscillator strengths calculated
  
* Read MO coefficients from SIRIUS.RST with label "NEWORB  " and header info: 22Dec18  REORTHO 


 ***********************************************
 ***** DIIS acceleration of SCF iterations *****
 ***********************************************

 C1-DIIS algorithm; max error vectors =    8
 -----------------------------------------------------------------------------

 *** DIIS iteration number    1
 RDSUPM called. NFMAT, ISYMDM(1:NFMAT)                     1
                     1

Calculating AOSUPINT
     (Precalculated two-electron integrals are transformed to P-supermatrix elements.
      Threshold for discarding integrals :  1.00D-12 )
  CPU  time used in FORMSUP    is   7.21 seconds
  WALL time used in FORMSUP    is  11.79 seconds

 ITDIIS, energy, error norm, change in energy, scr.thr., difden:
@ DIIS iter.   1    -359.936527222        3.75534D+00   -3.60D+02  -20    F

 (DIIS_RED) Control Parameters C2DIIS =         F NEVC =    1


 (DIIS_RED) B matrix:

               Column   1
       1      14.10258623
    ==== End of matrix output ====

 DIIS C vector; C2DIIS = F, LAMBDA = -1.41D+01
    1.000000
* Read MO coefficients from SIRIUS.RST with label "NEWORB  " and header info: 22Dec18  DIIS   1
      Virial theorem: -V/T =      1.998031
@      MULPOP N      -0.39; H       0.17; H       0.18; H       0.16; O      -0.75; O      -0.79; O      -0.63; O      -0.56; H       0.36; H       0.31; 
@             H       0.33; H       0.31; H       0.33; H       0.33; H       0.34; H       0.33; 
   1  Level shift: doubly occupied orbital energies shifted by -2.00D-01

 DIIS Fock eigenvalues in symmetry 1
      -20.81569      -20.66440      -20.64153      -20.62308      -15.97061
       -1.61809       -1.53014       -1.50782       -1.47392       -1.43979
       -0.98771       -0.95060       -0.94904       -0.91645       -0.90136
       -0.86664       -0.85698       -0.82300       -0.78195       -0.76490
       -0.73858       -0.73220       -0.72802       -0.71829       -0.69245
        0.08767        0.14764        0.15670        0.20112        0.21823
        0.24175        0.26056        0.28331        0.30094        0.32324
        0.34927        0.41133        0.44774        0.48985        0.50015
        0.51396        0.53632        0.56037        0.57701        0.58782
        0.62487        0.62892        0.81644        0.85354        0.87740
        0.92791        0.94785        0.96531        0.97862        0.99830
        1.02967        1.05423        1.06613        1.07688        1.10178
        1.12206        1.14655        1.20710        1.23483        1.30366
        1.31865        1.37209        1.38189        1.40190        1.44644
        1.46162        1.48955        1.49671        1.50118        1.55084
        1.63358        1.65788        1.68828        1.69866        1.70352
        1.73007        1.73502        1.77885        1.79193        1.80340
        1.82091        1.87420        1.90219        1.96314        2.08884
        2.10428        2.14372        2.18618        2.19099        2.24235
        2.29002        2.30639        2.38868        2.47359        2.49289
        2.51844        2.60468        2.62764        2.68136        2.68959
        2.69894        2.76175        2.77101        2.77983        2.80282
        2.85015        2.88672        2.90947        3.03154        3.29835
        3.33668        3.36612        3.37586        3.40773        3.41730
        3.45018        3.49644        3.53971        3.54899        3.57020
        3.58809        3.62646        3.67790        3.91491        4.00905
        4.01924        4.03202        4.15739        4.16716        4.22012
        4.23819        4.40301        4.96448        5.07085        5.33651
        5.35872        5.37299        5.40388        5.64383        5.72733
        5.73771        5.77821        5.99481        6.09029        6.16360
        6.21622       36.79447       51.46366       51.57756       51.67029
       51.67775
 Time used in FCKEIG, thr_jaco:   4.48D-01  4.50D-02  1.64D-04
 CPU and wall times used in FCKEIG, THR_FCKEIG:   4.48D-01  4.50D-02  3.76D-02
 -----------------------------------------------------------------------------

 *** DIIS iteration number    2
 RDSUPM called. NFMAT, ISYMDM(1:NFMAT)                     1
                     1

 ITDIIS, energy, error norm, change in energy, scr.thr., difden:
@ DIIS iter.   2    -360.717575286        9.15128D-01   -7.81D-01  -20    F

 (DIIS_RED) Control Parameters C2DIIS =         F NEVC =    2


 (DIIS_RED) B matrix:

               Column   1     Column   2
       1      14.10258623
       2       1.01641979     0.83745894
    ==== End of matrix output ====

 DIIS C vector; C2DIIS = F, LAMBDA = -8.35D-01
   -0.013865    1.013865
* Read MO coefficients from SIRIUS.RST with label "NEWORB  " and header info: 22Dec18  DIIS   2
      Virial theorem: -V/T =      2.004525
@      MULPOP N      -0.65; H       0.21; H       0.22; H       0.24; O      -0.61; O      -0.71; O      -0.63; O      -0.61; H       0.31; H       0.26; 
@             H       0.32; H       0.32; H       0.35; H       0.30; H       0.34; H       0.34; 
   2  Level shift: doubly occupied orbital energies shifted by -5.00D-02

 DIIS Fock eigenvalues in symmetry 1
      -20.70229      -20.64900      -20.63776      -20.59313      -15.49501
       -1.43129       -1.41137       -1.39371       -1.32613       -1.16312
       -0.79993       -0.77546       -0.75862       -0.70244       -0.68882
       -0.67436       -0.66362       -0.65377       -0.64195       -0.61265
       -0.59746       -0.58998       -0.58296       -0.52913       -0.47043
        0.12794        0.17904        0.19198        0.22660        0.24835
        0.27051        0.29299        0.31734        0.33197        0.34925
        0.37073        0.47469        0.50288        0.52208        0.53924
        0.55367        0.57841        0.58770        0.62501        0.63264
        0.64926        0.68857        0.90255        0.93251        0.94020
        0.94288        0.96590        0.97679        0.98429        1.01246
        1.05271        1.07697        1.10676        1.11152        1.13315
        1.13466        1.14748        1.25794        1.33456        1.34750
        1.37087        1.42395        1.44105        1.45717        1.48482
        1.50510        1.53722        1.54385        1.54740        1.57340
        1.67936        1.69673        1.73411        1.73714        1.75395
        1.78878        1.81114        1.84305        1.85008        1.86225
        1.90158        1.94402        1.98579        2.01643        2.19890
        2.21277        2.21574        2.21767        2.22681        2.31644
        2.32423        2.36111        2.46183        2.54031        2.57146
        2.59442        2.65104        2.69651        2.74142        2.75554
        2.78060        2.82099        2.82639        2.83967        2.91333
        2.94923        3.00224        3.03521        3.16525        3.36716
        3.38672        3.41373        3.42550        3.46290        3.47103
        3.48903        3.50669        3.53961        3.55537        3.58886
        3.60142        3.64979        3.66145        3.96099        3.99326
        4.01241        4.03178        4.17704        4.18349        4.21388
        4.23216        4.59715        5.17095        5.25470        5.28707
        5.30510        5.38507        5.39058        5.62926        5.65511
        5.66219        5.82685        6.05808        6.09039        6.10292
        6.16580       37.11467       51.43245       51.50156       51.50639
       51.52538
 Time used in FCKEIG, thr_jaco:   3.71D-01  3.80D-02  4.00D-05
 CPU and wall times used in FCKEIG, THR_FCKEIG:   3.71D-01  3.80D-02  9.15D-03
 -----------------------------------------------------------------------------

 *** DIIS iteration number    3
 RDSUPM called. NFMAT, ISYMDM(1:NFMAT)                     1
                     1

 ITDIIS, energy, error norm, change in energy, scr.thr., difden:
@ DIIS iter.   3    -360.778132350        3.34669D-01   -6.06D-02  -20    F

 (DIIS_RED) Control Parameters C2DIIS =         F NEVC =    3


 (DIIS_RED) B matrix:

               Column   1     Column   2     Column   3
       1      14.10258623
       2       1.01641979     0.83745894
       3       0.62229922     0.06252813     0.11200326
    ==== End of matrix output ====

 DIIS C vector; C2DIIS = F, LAMBDA = -8.64D-02
   -0.042173    0.082706    0.959468
* Read MO coefficients from SIRIUS.RST with label "NEWORB  " and header info: 22Dec18  DIIS   3
      Virial theorem: -V/T =      2.002223
@      MULPOP N      -0.59; H       0.19; H       0.19; H       0.23; O      -0.69; O      -0.78; O      -0.70; O      -0.67; H       0.35; H       0.30; 
@             H       0.37; H       0.35; H       0.39; H       0.33; H       0.35; H       0.37; 
   3  Level shift: doubly occupied orbital energies shifted by -2.50D-02

 DIIS Fock eigenvalues in symmetry 1
      -20.61259      -20.56438      -20.53750      -20.52170      -15.59235
       -1.39668       -1.35536       -1.34059       -1.28358       -1.16988
       -0.75192       -0.73738       -0.71016       -0.67071       -0.65899
       -0.64442       -0.63375       -0.61768       -0.60013       -0.55643
       -0.54316       -0.53766       -0.52800       -0.48205       -0.46444
        0.13346        0.18301        0.19548        0.23096        0.25020
        0.27346        0.29515        0.32206        0.33266        0.35713
        0.37504        0.47532        0.50494        0.53383        0.55249
        0.56088        0.58580        0.59534        0.63316        0.63963
        0.65804        0.69168        0.90494        0.93024        0.94624
        0.96268        0.97941        0.98781        0.99336        1.02884
        1.06667        1.08921        1.11603        1.12711        1.13837
        1.14845        1.15974        1.25760        1.33479        1.35961
        1.38017        1.43492        1.44340        1.46890        1.49487
        1.51405        1.54817        1.55590        1.55855        1.58706
        1.69175        1.70817        1.74493        1.75175        1.76597
        1.79522        1.81548        1.84876        1.85832        1.86889
        1.90390        1.95122        1.98947        2.02287        2.18991
        2.20718        2.22081        2.23069        2.24222        2.32554
        2.33904        2.37530        2.47289        2.55324        2.58104
        2.60040        2.66158        2.70420        2.74981        2.76436
        2.78708        2.82787        2.83443        2.84985        2.90391
        2.95727        2.98543        3.01785        3.14692        3.40908
        3.41027        3.43087        3.44402        3.45498        3.48009
        3.49109        3.52234        3.56411        3.58051        3.61320
        3.64616        3.66021        3.69562        3.97998        4.02750
        4.04723        4.05607        4.20978        4.21533        4.24880
        4.25513        4.54021        5.12282        5.23028        5.33954
        5.35073        5.39443        5.42182        5.66111        5.70952
        5.72219        5.83469        6.06771        6.12182        6.16450
        6.21582       36.99621       51.48301       51.54808       51.58732
       51.59229
 Time used in FCKEIG, thr_jaco:   3.18D-01  3.20D-02  1.46D-05
 CPU and wall times used in FCKEIG, THR_FCKEIG:   3.18D-01  3.20D-02  3.35D-03
 -----------------------------------------------------------------------------

 *** DIIS iteration number    4
 RDSUPM called. NFMAT, ISYMDM(1:NFMAT)                     1
                     1

 ITDIIS, energy, error norm, change in energy, scr.thr., difden:
@ DIIS iter.   4    -360.785939844        1.15744D-01   -7.81D-03  -20    F

 (DIIS_RED) Control Parameters C2DIIS =         F NEVC =    4


 (DIIS_RED) B matrix:

               Column   1     Column   2     Column   3     Column   4
       1      14.10258623
       2       1.01641979     0.83745894
       3       0.62229922     0.06252813     0.11200326
       4      -0.00759677     0.07737687    -0.00936347     0.01339662
    ==== End of matrix output ====

 DIIS C vector; C2DIIS = F, LAMBDA = -3.68D-03
    0.000461   -0.094378    0.161010    0.932907
* Read MO coefficients from SIRIUS.RST with label "NEWORB  " and header info: 22Dec18  DIIS   4
      Virial theorem: -V/T =      2.003200
@      MULPOP N      -0.65; H       0.20; H       0.21; H       0.25; O      -0.68; O      -0.78; O      -0.71; O      -0.69; H       0.36; H       0.29; 
@             H       0.38; H       0.35; H       0.40; H       0.33; H       0.36; H       0.38; 
   4  Level shift: doubly occupied orbital energies shifted by -1.25D-02

 DIIS Fock eigenvalues in symmetry 1
      -20.59716      -20.58582      -20.54963      -20.52356      -15.54737
       -1.38505       -1.35384       -1.33623       -1.27694       -1.14698
       -0.74317       -0.72920       -0.70377       -0.65464       -0.64696
       -0.62705       -0.61945       -0.60677       -0.59255       -0.54397
       -0.53916       -0.52873       -0.52009       -0.46960       -0.44205
        0.13245        0.18285        0.19500        0.23015        0.25033
        0.27385        0.29534        0.32212        0.33418        0.35624
        0.37630        0.47923        0.50807        0.53253        0.55042
        0.56227        0.58514        0.59416        0.63167        0.63824
        0.65628        0.69369        0.90874        0.93568        0.94806
        0.96028        0.98058        0.98678        0.99383        1.02714
        1.06540        1.08869        1.11663        1.12403        1.13997
        1.14521        1.15746        1.26008        1.33914        1.35746
        1.37928        1.43351        1.44616        1.46674        1.49377
        1.51216        1.54548        1.55394        1.55676        1.58560
        1.68938        1.70540        1.74329        1.74883        1.76356
        1.79469        1.81785        1.84929        1.85668        1.86910
        1.90660        1.94999        1.99298        2.02370        2.19692
        2.21373        2.21990        2.22793        2.23733        2.32371
        2.33558        2.37102        2.47297        2.55071        2.58085
        2.60200        2.65988        2.70605        2.74820        2.76285
        2.78889        2.82634        2.83387        2.84778        2.91115
        2.95823        2.99308        3.02728        3.15593        3.40034
        3.40634        3.43431        3.44342        3.45861        3.48056
        3.49690        3.51619        3.55801        3.57560        3.60852
        3.63548        3.66151        3.68884        3.97898        4.01879
        4.04009        4.05122        4.20474        4.20906        4.24323
        4.24984        4.55904        5.13938        5.24495        5.32603
        5.33484        5.39576        5.41431        5.65356        5.69672
        5.70601        5.83621        6.06836        6.11383        6.14745
        6.20337       37.02812       51.47692       51.53403       51.56308
       51.56816
 Time used in FCKEIG, thr_jaco:   2.48D-01  2.60D-02  5.06D-06
 CPU and wall times used in FCKEIG, THR_FCKEIG:   2.48D-01  2.60D-02  1.16D-03
 -----------------------------------------------------------------------------

 *** DIIS iteration number    5
 RDSUPM called. NFMAT, ISYMDM(1:NFMAT)                     1
                     1

 ITDIIS, energy, error norm, change in energy, scr.thr., difden:
@ DIIS iter.   5    -360.786999838        2.31347D-02   -1.06D-03  -20    F

 (DIIS_RED) Control Parameters C2DIIS =         F NEVC =    5


 (DIIS_RED) B matrix:

               Column   1     Column   2     Column   3     Column   4     Column   5
       1      14.10258623
       2       1.01641979     0.83745894
       3       0.62229922     0.06252813     0.11200326
       4      -0.00759677     0.07737687    -0.00936347     0.01339662
       5       0.01150165     0.00606999     0.00459859     0.00070571     0.00053521
    ==== End of matrix output ====

 DIIS C vector; C2DIIS = F, LAMBDA = -2.86D-04
    0.001549    0.007057   -0.069787   -0.130102    1.191282
* Read MO coefficients from SIRIUS.RST with label "NEWORB  " and header info: 22Dec18  DIIS   5
      Virial theorem: -V/T =      2.002822
@      MULPOP N      -0.64; H       0.20; H       0.21; H       0.24; O      -0.69; O      -0.80; O      -0.72; O      -0.70; H       0.36; H       0.30; 
@             H       0.39; H       0.36; H       0.41; H       0.34; H       0.37; H       0.38; 

 DIIS Fock eigenvalues in symmetry 1
      -20.58668      -20.56926      -20.53377      -20.50823      -15.53141
       -1.37309       -1.34018       -1.32242       -1.26354       -1.13355
       -0.73083       -0.71706       -0.69081       -0.64194       -0.63423
       -0.61487       -0.60668       -0.59364       -0.57904       -0.53130
       -0.52462       -0.51566       -0.50547       -0.45535       -0.42810
        0.13226        0.18275        0.19481        0.23007        0.25022
        0.27394        0.29519        0.32207        0.33429        0.35627
        0.37653        0.47939        0.50815        0.53257        0.55027
        0.56240        0.58490        0.59390        0.63150        0.63793
        0.65643        0.69395        0.90927        0.93609        0.94869
        0.96137        0.98138        0.98766        0.99432        1.02776
        1.06611        1.08930        1.11641        1.12419        1.13990
        1.14555        1.15780        1.26059        1.33962        1.35735
        1.37970        1.43341        1.44651        1.46650        1.49420
        1.51158        1.54501        1.55380        1.55671        1.58591
        1.68926        1.70516        1.74328        1.74877        1.76324
        1.79439        1.81794        1.84902        1.85619        1.86895
        1.90674        1.94938        1.99324        2.02366        2.19733
        2.21398        2.21900        2.22756        2.23729        2.32299
        2.33563        2.37074        2.47318        2.55022        2.58070
        2.60214        2.65964        2.70596        2.74768        2.76235
        2.78885        2.82548        2.83346        2.84734        2.91159
        2.95808        2.99360        3.02788        3.15664        3.40146
        3.40736        3.43520        3.44379        3.45946        3.47964
        3.49791        3.51699        3.55917        3.57643        3.60937
        3.63674        3.66054        3.69003        3.97837        4.01960
        4.04125        4.05199        4.20563        4.20966        4.24400
        4.25004        4.56073        5.14093        5.24652        5.32828
        5.33718        5.39472        5.41608        5.65507        5.69859
        5.70798        5.83494        6.06698        6.11502        6.14923
        6.20494       37.03151       51.47680       51.53681       51.56521
       51.57144
 Time used in FCKEIG, thr_jaco:   3.04D-01  3.10D-02  1.01D-06
 CPU and wall times used in FCKEIG, THR_FCKEIG:   3.04D-01  3.10D-02  2.31D-04
 -----------------------------------------------------------------------------

 *** DIIS iteration number    6
 RDSUPM called. NFMAT, ISYMDM(1:NFMAT)                     1
                     1

 ITDIIS, energy, error norm, change in energy, scr.thr., difden:
@ DIIS iter.   6    -360.787079521        7.47571D-03   -7.97D-05  -20    F

 (DIIS_RED) Control Parameters C2DIIS =         F NEVC =    6


 (DIIS_RED) B matrix:

               Column   1     Column   2     Column   3     Column   4     Column   5     Column   6
       1      14.10258623
       2       1.01641979     0.83745894
       3       0.62229922     0.06252813     0.11200326
       4      -0.00759677     0.07737687    -0.00936347     0.01339662
       5       0.01150165     0.00606999     0.00459859     0.00070571     0.00053521
       6      -0.00181049    -0.00020075     0.00052243     0.00017079     0.00006536     0.00005589
    ==== End of matrix output ====

 DIIS C vector; C2DIIS = F, LAMBDA = -3.45D-05
    0.000470    0.007481   -0.024132   -0.077817    0.166075    0.927922
* Read MO coefficients from SIRIUS.RST with label "NEWORB  " and header info: 22Dec18  DIIS   6
      Virial theorem: -V/T =      2.002940
@      MULPOP N      -0.64; H       0.20; H       0.21; H       0.24; O      -0.69; O      -0.80; O      -0.72; O      -0.70; H       0.36; H       0.30; 
@             H       0.39; H       0.36; H       0.41; H       0.34; H       0.37; H       0.38; 

 DIIS Fock eigenvalues in symmetry 1
      -20.58561      -20.57064      -20.53452      -20.50963      -15.53459
       -1.37283       -1.34047       -1.32249       -1.26396       -1.13456
       -0.73097       -0.71716       -0.69104       -0.64252       -0.63490
       -0.61515       -0.60717       -0.59415       -0.57925       -0.53100
       -0.52488       -0.51622       -0.50538       -0.45566       -0.42890
        0.13215        0.18263        0.19470        0.22999        0.25014
        0.27378        0.29509        0.32192        0.33408        0.35620
        0.37642        0.47909        0.50791        0.53243        0.55016
        0.56225        0.58476        0.59371        0.63137        0.63780
        0.65636        0.69365        0.90889        0.93555        0.94829
        0.96119        0.98127        0.98742        0.99435        1.02748
        1.06588        1.08902        1.11643        1.12394        1.13976
        1.14530        1.15758        1.26014        1.33913        1.35728
        1.37935        1.43322        1.44609        1.46640        1.49404
        1.51146        1.54474        1.55366        1.55657        1.58585
        1.68905        1.70489        1.74320        1.74864        1.76311
        1.79407        1.81760        1.84874        1.85591        1.86873
        1.90637        1.94920        1.99291        2.02350        2.19667
        2.21334        2.21892        2.22716        2.23697        2.32294
        2.33546        2.37038        2.47291        2.55004        2.58046
        2.60180        2.65955        2.70568        2.74737        2.76213
        2.78854        2.82513        2.83338        2.84716        2.91088
        2.95775        2.99275        3.02700        3.15578        3.40111
        3.40682        3.43473        3.44362        3.45862        3.47989
        3.49709        3.51660        3.55892        3.57591        3.60889
        3.63632        3.66080        3.68988        3.97850        4.01931
        4.04104        4.05146        4.20510        4.20945        4.24392
        4.25001        4.55899        5.13931        5.24497        5.32789
        5.33648        5.39526        5.41532        5.65430        5.69819
        5.70736        5.83543        6.06743        6.11424        6.14855
        6.20459       37.02839       51.47711       51.53544       51.56458
       51.57070
 Time used in FCKEIG, thr_jaco:   2.53D-01  2.50D-02  3.27D-07
 CPU and wall times used in FCKEIG, THR_FCKEIG:   2.54D-01  2.50D-02  7.48D-05
 -----------------------------------------------------------------------------

 *** DIIS iteration number    7
 RDSUPM called. NFMAT, ISYMDM(1:NFMAT)                     1
                     1

 ITDIIS, energy, error norm, change in energy, scr.thr., difden:
@ DIIS iter.   7    -360.787085399        2.56944D-03   -5.88D-06  -20    F

 (DIIS_RED) Control Parameters C2DIIS =         F NEVC =    7


 (DIIS_RED) B matrix:

               Column   1     Column   2     Column   3     Column   4     Column   5     Column   6
       1      14.10258623
       2       1.01641979     0.83745894
       3       0.62229922     0.06252813     0.11200326
       4      -0.00759677     0.07737687    -0.00936347     0.01339662
       5       0.01150165     0.00606999     0.00459859     0.00070571     0.00053521
       6      -0.00181049    -0.00020075     0.00052243     0.00017079     0.00006536     0.00005589
       7       0.00059899    -0.00002920     0.00008706    -0.00000606     0.00003551    -0.00000056

               Column   7
       7       0.00000660
    ==== End of matrix output ====

 DIIS C vector; C2DIIS = F, LAMBDA = -1.60D-06
   -0.000223   -0.001247    0.009686    0.022565   -0.170416    0.067436    1.072199
* Read MO coefficients from SIRIUS.RST with label "NEWORB  " and header info: 22Dec18  DIIS   7
      Virial theorem: -V/T =      2.002917
@      MULPOP N      -0.64; H       0.20; H       0.21; H       0.24; O      -0.69; O      -0.80; O      -0.72; O      -0.70; H       0.36; H       0.30; 
@             H       0.39; H       0.36; H       0.41; H       0.34; H       0.37; H       0.38; 

 DIIS Fock eigenvalues in symmetry 1
      -20.58612      -20.57020      -20.53428      -20.50926      -15.53400
       -1.37295       -1.34032       -1.32232       -1.26380       -1.13436
       -0.73099       -0.71721       -0.69093       -0.64245       -0.63482
       -0.61523       -0.60714       -0.59409       -0.57916       -0.53104
       -0.52467       -0.51618       -0.50517       -0.45545       -0.42868
        0.13216        0.18265        0.19470        0.23002        0.25015
        0.27381        0.29509        0.32193        0.33410        0.35621
        0.37649        0.47915        0.50797        0.53247        0.55017
        0.56232        0.58475        0.59371        0.63138        0.63779
        0.65644        0.69370        0.90895        0.93564        0.94839
        0.96131        0.98135        0.98754        0.99439        1.02754
        1.06596        1.08911        1.11641        1.12399        1.13977
        1.14539        1.15766        1.26028        1.33920        1.35728
        1.37944        1.43322        1.44615        1.46638        1.49416
        1.51141        1.54472        1.55370        1.55663        1.58596
        1.68906        1.70490        1.74329        1.74865        1.76311
        1.79408        1.81764        1.84875        1.85590        1.86876
        1.90641        1.94916        1.99295        2.02358        2.19675
        2.21343        2.21881        2.22716        2.23701        2.32285
        2.33556        2.37042        2.47300        2.55002        2.58049
        2.60184        2.65963        2.70570        2.74736        2.76211
        2.78853        2.82508        2.83346        2.84714        2.91099
        2.95778        2.99289        3.02715        3.15591        3.40124
        3.40697        3.43486        3.44366        3.45878        3.47974
        3.49726        3.51671        3.55908        3.57606        3.60902
        3.63649        3.66065        3.69004        3.97839        4.01941
        4.04120        4.05159        4.20525        4.20952        4.24400
        4.25004        4.55932        5.13959        5.24526        5.32810
        5.33674        5.39502        5.41555        5.65451        5.69838
        5.70758        5.83517        6.06718        6.11444        6.14877
        6.20477       37.02897       51.47690       51.53580       51.56473
       51.57093
 Time used in FCKEIG, thr_jaco:   2.58D-01  2.60D-02  1.12D-07
 CPU and wall times used in FCKEIG, THR_FCKEIG:   2.58D-01  2.60D-02  2.57D-05
 -----------------------------------------------------------------------------

 *** DIIS iteration number    8
 RDSUPM called. NFMAT, ISYMDM(1:NFMAT)                     1
                     1

 ITDIIS, energy, error norm, change in energy, scr.thr., difden:
@ DIIS iter.   8    -360.787086091        4.45987D-04   -6.92D-07  -20    F

 (DIIS_RED) Control Parameters C2DIIS =         F NEVC =    8


 (DIIS_RED) B matrix:

               Column   1     Column   2     Column   3     Column   4     Column   5     Column   6
       1      14.10258623
       2       1.01641979     0.83745894
       3       0.62229922     0.06252813     0.11200326
       4      -0.00759677     0.07737687    -0.00936347     0.01339662
       5       0.01150165     0.00606999     0.00459859     0.00070571     0.00053521
       6      -0.00181049    -0.00020075     0.00052243     0.00017079     0.00006536     0.00005589
       7       0.00059899    -0.00002920     0.00008706    -0.00000606     0.00003551    -0.00000056
       8       0.00009964     0.00001082     0.00000045     0.00000395     0.00000153     0.00000160

               Column   7     Column   8
       7       0.00000660
       8       0.00000036     0.00000020
    ==== End of matrix output ====

 DIIS C vector; C2DIIS = F, LAMBDA = -1.32D-07
   -0.000014   -0.000177    0.000251    0.001044    0.006909   -0.045269   -0.084077    1.121332
* Read MO coefficients from SIRIUS.RST with label "NEWORB  " and header info: 22Dec18  DIIS   8
      Virial theorem: -V/T =      2.002931
@      MULPOP N      -0.64; H       0.20; H       0.21; H       0.24; O      -0.69; O      -0.80; O      -0.72; O      -0.70; H       0.36; H       0.30; 
@             H       0.39; H       0.36; H       0.41; H       0.34; H       0.37; H       0.38; 

 DIIS Fock eigenvalues in symmetry 1
      -20.58599      -20.57023      -20.53418      -20.50932      -15.53399
       -1.37292       -1.34032       -1.32228       -1.26382       -1.13436
       -0.73097       -0.71719       -0.69089       -0.64245       -0.63483
       -0.61522       -0.60714       -0.59409       -0.57913       -0.53101
       -0.52468       -0.51623       -0.50513       -0.45546       -0.42868
        0.13216        0.18265        0.19470        0.23002        0.25016
        0.27381        0.29509        0.32192        0.33410        0.35621
        0.37649        0.47915        0.50797        0.53247        0.55017
        0.56232        0.58475        0.59370        0.63138        0.63779
        0.65645        0.69370        0.90896        0.93564        0.94839
        0.96132        0.98137        0.98755        0.99441        1.02752
        1.06596        1.08910        1.11642        1.12399        1.13977
        1.14539        1.15768        1.26028        1.33920        1.35729
        1.37943        1.43323        1.44615        1.46639        1.49417
        1.51141        1.54471        1.55369        1.55664        1.58597
        1.68906        1.70488        1.74330        1.74865        1.76311
        1.79407        1.81764        1.84874        1.85589        1.86876
        1.90641        1.94916        1.99295        2.02359        2.19674
        2.21342        2.21883        2.22714        2.23700        2.32286
        2.33558        2.37040        2.47300        2.55002        2.58049
        2.60184        2.65964        2.70570        2.74735        2.76211
        2.78852        2.82506        2.83346        2.84714        2.91098
        2.95778        2.99289        3.02714        3.15591        3.40123
        3.40694        3.43488        3.44369        3.45879        3.47977
[...]
    ==== End of matrix output ====


 CCSD   oscillator strength matrix for state nr. 13 of symmetry 1
 CCSD  excitation energy:15.14208223


               Column   1     Column   2     Column   3
       1     2.742903D-04  -2.304937D-04  -6.491940D-05
       2    -2.304937D-04   1.936838D-04   5.455060D-05
       3    -6.491940D-05   5.455060D-05   1.536385D-05
    ==== End of matrix output ====

 Principal values of diagonalized oscillator strength matrix:

             a.u.               
 1      -0.00000000
 2       0.00000000
 3       0.00048334

 Principal axis of diagonalized oscillator strength matrix:


               Column   1     Column   2     Column   3
       1       0.64365083    -0.13499350     0.75331957
       2       0.65401981    -0.41416977    -0.63302566
       3       0.39745654     0.90013341    -0.17829229
    ==== End of matrix output ====


 CCSD  Transition strength matrix for state nr. 14 of symmetry 1
 CCSD  excitation energy:15.23085876

 Gauge: length

               Column   1     Column   2     Column   3
       1     1.469774D-05  -4.652001D-05  -3.067904D-06
       2    -4.652001D-05   1.472408D-04   9.709832D-06
       3    -3.067904D-06   9.709832D-06   6.397086D-07
    ==== End of matrix output ====

 Principal values of diagonalized transition strength matrix:

             a.u.               
 1      -0.00000000
 2      -0.00000000
 3       0.00016258

 Principal axis of diagonalized transition strength matrix:


               Column   1     Column   2     Column   3
       1       0.20987937     0.93034765    -0.30067242
       2       0.00183399     0.30714662     0.95166044
       3       0.97772557    -0.20028533     0.06275749
    ==== End of matrix output ====


 CCSD   oscillator strength matrix for state nr. 14 of symmetry 1
 CCSD  excitation energy:15.23085876


               Column   1     Column   2     Column   3
       1       0.00014924    -0.00047236    -0.00003115
       2      -0.00047236     0.00149507     0.00009859
       3      -0.00003115     0.00009859     0.00000650
    ==== End of matrix output ====

 Principal values of diagonalized oscillator strength matrix:

             a.u.               
 1      -0.00000001
 2       0.00000000
 3       0.00165081

 Principal axis of diagonalized oscillator strength matrix:


               Column   1     Column   2     Column   3
       1       0.20987937     0.93034765    -0.30067242
       2       0.00183399     0.30714662     0.95166044
       3       0.97772557    -0.20028533     0.06275749
    ==== End of matrix output ====


 CCSD  Transition strength matrix for state nr. 15 of symmetry 1
 CCSD  excitation energy:15.27219657

 Gauge: length

               Column   1     Column   2     Column   3
       1     6.427701D-06   3.995282D-05  -1.615185D-05
       2     3.995282D-05   2.481725D-04  -1.003037D-04
       3    -1.615185D-05  -1.003037D-04   4.053558D-05
    ==== End of matrix output ====

 Principal values of diagonalized transition strength matrix:

             a.u.               
 1      -0.00000001
 2      -0.00000000
 3       0.00029514

 Principal axis of diagonalized transition strength matrix:


               Column   1     Column   2     Column   3
       1       0.74524385    -0.65024470     0.14762603
       2       0.14322622     0.37233466     0.91698045
       3       0.65122796     0.66223012    -0.37061221
    ==== End of matrix output ====


 CCSD   oscillator strength matrix for state nr. 15 of symmetry 1
 CCSD  excitation energy:15.27219657


               Column   1     Column   2     Column   3
       1       0.00006544     0.00040678    -0.00016445
       2       0.00040678     0.00252676    -0.00102124
       3      -0.00016445    -0.00102124     0.00041271
    ==== End of matrix output ====

 Principal values of diagonalized oscillator strength matrix:

             a.u.               
 1      -0.00000008
 2      -0.00000000
 3       0.00300500

 Principal axis of diagonalized oscillator strength matrix:


               Column   1     Column   2     Column   3
       1       0.74524385    -0.65024470     0.14762603
       2       0.14322622     0.37233466     0.91698045
       3       0.65122796     0.66223012    -0.37061221
    ==== End of matrix output ====

  Total time for    135 linear response residues:     142.81 seconds.
  

 *******************************************************************************
 *******************************************************************************
 *                                                                             *
 *                                                                             *
 *                   SUMMARY OF COUPLED CLUSTER CALCULATION                    *
 *                                                                             *
 *                                                                             *
 *******************************************************************************
 *******************************************************************************

                                                                                
                                                                                
            Total SCF   energy:                  -360.7870861203                
            Total MP2   energy:                  -361.8916312433                
            Total CCSD  energy:                  -361.9306165851                
                                                                                
                                                                                
            Total SCF   energy:                  -360.7870861203                
            Total RSTAR energy:                  -361.9306165851                
            Total CCSD  energy:                  -361.9307627056                
                                                                                
                                                                                
            Total SCF   energy:                  -360.7870861203                
            Total RSTAR energy:                  -361.9307627056                
            Total CCSD  energy:                  -361.9307644673                
                                                                                
                                                                                
            Total SCF   energy:                  -360.7870861203                
            Total RSTAR energy:                  -361.9307644673                
            Total CCSD  energy:                  -361.9307646338                
                                                                                
                                                                                
            Total SCF   energy:                  -360.7870861203                
            Total RSTAR energy:                  -361.9307646338                
            Total CCSD  energy:                  -361.9307646421                
                                                                                
                                                                                
            Total SCF   energy:                  -360.7870861203                
            Total RSTAR energy:                  -361.9307646421                
            Total CCSD  energy:                  -361.9307646426                
                                                                                
                                                                                
            Total SCF   energy:                  -360.7870861203                
            Total RSTAR energy:                  -361.9307646426                
            Total CCSD  energy:                  -361.9307646426                
            CCSD Total  energy:                  -362.3733645129                
            CCSD E(QM/MM)     :                    -0.4369507181                
                                                                                
                                                                                
                                                                                
 +=============================================================================+
 |  sym. | Exci.  |        CCSD       Excitation energies            | ||T1||  |
 |(spin, |        +------------------------------------------------------------+
 | spat) |        |     Hartree    |       eV.      |     cm-1       |    %    |
 +=============================================================================+
 | ^1A   |    1   |    14.8217555  |     403.32048  |   3252999.292  |  88.27  |
 | ^1A   |    2   |    14.8799054  |     404.90282  |   3265761.714  |  88.79  |
 | ^1A   |    3   |    14.9032013  |     405.53674  |   3270874.591  |  88.71  |
 | ^1A   |    4   |    14.9570821  |     407.00291  |   3282700.048  |  87.98  |
 | ^1A   |    5   |    14.9736266  |     407.45311  |   3286331.142  |  88.31  |
 | ^1A   |    6   |    15.0097725  |     408.43669  |   3294264.257  |  87.95  |
 | ^1A   |    7   |    15.0321724  |     409.04622  |   3299180.467  |  87.84  |
 | ^1A   |    8   |    15.0680300  |     410.02195  |   3307050.301  |  87.80  |
 | ^1A   |    9   |    15.0791725  |     410.32516  |   3309495.788  |  87.84  |
 | ^1A   |   10   |    15.0965142  |     410.79705  |   3313301.860  |  87.96  |
 | ^1A   |   11   |    15.1087924  |     411.13115  |   3315996.602  |  88.12  |
 | ^1A   |   12   |    15.1191884  |     411.41404  |   3318278.264  |  87.79  |
 | ^1A   |   13   |    15.1420822  |     412.03702  |   3323302.885  |  87.88  |
 | ^1A   |   14   |    15.2308588  |     414.45275  |   3342787.081  |  87.80  |
 | ^1A   |   15   |    15.2721966  |     415.57761  |   3351859.681  |  87.92  |
 +=============================================================================+
                                                                                
                                                                                
     Total energies in Hartree:                                                 
             1 ^1A       -347.1146583068                                        
             2 ^1A       -347.0565084347                                        
             3 ^1A       -347.0332124504                                        
             4 ^1A       -346.9793317042                                        
             5 ^1A       -346.9627872208                                        
             6 ^1A       -346.9266412917                                        
             7 ^1A       -346.9042413879                                        
             8 ^1A       -346.8683837849                                        
             9 ^1A       -346.8572413263                                        
            10 ^1A       -346.8398995892                                        
            11 ^1A       -346.8276214389                                        
            12 ^1A       -346.8172254215                                        
            13 ^1A       -346.7943315631                                        
            14 ^1A       -346.7055550334                                        
            15 ^1A       -346.6642172279                                        
                                                                                
                                                                                
 +=============================================================================+
 |  sym. | Exci.  |        CCSD       Length   Gauge Oscillator Strength       |
 |(spin, |        +------------------------------------------------------------+
 | spat) |        | Dipole Strength(a.u.) | Oscillator strength  | Direction   |
 +=============================================================================+
 | ^1A   |    1   |        0.0006071      |      0.0059990       |  (Y,Z)      |
 | ^1A   |    2   |        0.0036317      |      0.0360267       |  (Y,Z)      |
 | ^1A   |    3   |        0.0036276      |      0.0360418       |  (Y,Z)      |
 | ^1A   |    4   |        0.0005838      |      0.0058212       |  (Y,Z)      |
 | ^1A   |    5   |        0.0017222      |      0.0171913       |  (Y,Z)      |
 | ^1A   |    6   |        0.0003009      |      0.0030107       |  (Y,Z)      |
 | ^1A   |    7   |        0.0003475      |      0.0034828       |  (Y,Z)      |
 | ^1A   |    8   |        0.0002458      |      0.0024687       |  (Y,Z)      |
 | ^1A   |    9   |        0.0000113      |      0.0001138       |  (Y,Z)      |
 | ^1A   |   10   |        0.0002427      |      0.0024422       |  (Y,Z)      |
 | ^1A   |   11   |        0.0008295      |      0.0083551       |  (Y,Z)      |
 | ^1A   |   12   |        0.0000284      |      0.0002867       |  (Y,Z)      |
 | ^1A   |   13   |        0.0000479      |      0.0004833       |  (Y,Z)      |
 | ^1A   |   14   |        0.0001626      |      0.0016508       |  (Y,Z)      |
 | ^1A   |   15   |        0.0002951      |      0.0030049       |  (Y,Z)      |
 +=============================================================================+

  1 a.u. =        27.21138 eV.  
  1 a.u. =    219474.62934 cm-1.
  

 *******************************************************************************
 *******************************************************************************
 *                                                                             *
 *                                                                             *
 *                      END OF COUPLED CLUSTER CALCULATION                     *
 *                                                                             *
 *                                                                             *
 *******************************************************************************
 *******************************************************************************


 CPU and wall time for CC :  597274.351  108499.217

 
     Date and time (Linux)  : Sun Dec 23 21:49:08 2018
     Host name              : n-62-30-16                              


                      .-------------------------------------.
                      | End of Coupled Cluster Section (CC) |
                      `-------------------------------------'

  Total CPU  time used in DALTON: 166 hours  5 minutes 46 seconds
  Total wall time used in DALTON:  30 hours 10 minutes 53 seconds

 
     Date and time (Linux)  : Sun Dec 23 21:49:08 2018
     Host name              : n-62-30-16                              
  

 +---------------------------------------------------------+ 
 | List of selected calculated molecular properties (a.u.) | 
 +---------------------------------------------------------+ 

  Properties are read from unit number                      4

 CCSD       properties :
 #  1 1 CCSD/MM  Ground state Energy =    -362.3733645129
 #  2 1 E_QM/MM  Ground state Energy =      -0.4369507181
 #  3 1 Sy: 1 Sp: 1 Exc:  1 E_tot:   -347.1146583068 w:     14.8217554880 E_grs:   -361.9364137948
 #  4 1 Exctot   Excited state Energy =    -347.1146583068
 #  5 1 Sy: 1 Sp: 1 Exc:  2 E_tot:   -347.0565084347 w:     14.8799053601 E_grs:   -361.9364137948
 #  6 1 Exctot   Excited state Energy =    -347.0565084347
 #  7 1 Sy: 1 Sp: 1 Exc:  3 E_tot:   -347.0332124504 w:     14.9032013445 E_grs:   -361.9364137948
 #  8 1 Exctot   Excited state Energy =    -347.0332124504
 #  9 1 Sy: 1 Sp: 1 Exc:  4 E_tot:   -346.9793317042 w:     14.9570820906 E_grs:   -361.9364137948
 # 10 1 Exctot   Excited state Energy =    -346.9793317042
 # 11 1 Sy: 1 Sp: 1 Exc:  5 E_tot:   -346.9627872208 w:     14.9736265740 E_grs:   -361.9364137948
 # 12 1 Exctot   Excited state Energy =    -346.9627872208
 # 13 1 Sy: 1 Sp: 1 Exc:  6 E_tot:   -346.9266412917 w:     15.0097725032 E_grs:   -361.9364137948
 # 14 1 Exctot   Excited state Energy =    -346.9266412917
 # 15 1 Sy: 1 Sp: 1 Exc:  7 E_tot:   -346.9042413879 w:     15.0321724069 E_grs:   -361.9364137948
 # 16 1 Exctot   Excited state Energy =    -346.9042413879
 # 17 1 Sy: 1 Sp: 1 Exc:  8 E_tot:   -346.8683837849 w:     15.0680300099 E_grs:   -361.9364137948
 # 18 1 Exctot   Excited state Energy =    -346.8683837849
 # 19 1 Sy: 1 Sp: 1 Exc:  9 E_tot:   -346.8572413263 w:     15.0791724685 E_grs:   -361.9364137948
 # 20 1 Exctot   Excited state Energy =    -346.8572413263
 # 21 1 Sy: 1 Sp: 1 Exc: 10 E_tot:   -346.8398995892 w:     15.0965142056 E_grs:   -361.9364137948
 # 22 1 Exctot   Excited state Energy =    -346.8398995892
 # 23 1 Sy: 1 Sp: 1 Exc: 11 E_tot:   -346.8276214389 w:     15.1087923559 E_grs:   -361.9364137948
 # 24 1 Exctot   Excited state Energy =    -346.8276214389
 # 25 1 Sy: 1 Sp: 1 Exc: 12 E_tot:   -346.8172254215 w:     15.1191883733 E_grs:   -361.9364137948
 # 26 1 Exctot   Excited state Energy =    -346.8172254215
 # 27 1 Sy: 1 Sp: 1 Exc: 13 E_tot:   -346.7943315631 w:     15.1420822318 E_grs:   -361.9364137948
 # 28 1 Exctot   Excited state Energy =    -346.7943315631
 # 29 1 Sy: 1 Sp: 1 Exc: 14 E_tot:   -346.7055550334 w:     15.2308587615 E_grs:   -361.9364137948
 # 30 1 Exctot   Excited state Energy =    -346.7055550334
 # 31 1 Sy: 1 Sp: 1 Exc: 15 E_tot:   -346.6642172279 w:     15.2721965669 E_grs:   -361.9364137948
 # 32 1 Exctot   Excited state Energy =    -346.6642172279
 # 33 1 |<O|XDIPLEN |i(14.821755)>| =     0.00072786
 # 35 1 |<O|XDIPLEN |i(14.879905)>| =     0.05813243
 # 37 1 |<O|XDIPLEN |i(14.903201)>| =     0.01270590
 # 39 1 |<O|XDIPLEN |i(14.957082)>| =     0.00285364
 # 41 1 |<O|XDIPLEN |i(14.973627)>| =     0.01131901
 # 43 1 |<O|XDIPLEN |i(15.009773)>| =     0.01686789
 # 45 1 |<O|XDIPLEN |i(15.032172)>| =     0.01286110
 # 47 1 |<O|XDIPLEN |i(15.068030)>| =     0.01285983
 # 49 1 |<O|XDIPLEN |i(15.079172)>| =     0.00256484
 # 51 1 |<O|XDIPLEN |i(15.096514)>| =     0.00895343
 # 53 1 |<O|XDIPLEN |i(15.108792)>| =     0.00325343
 # 55 1 |<O|XDIPLEN |i(15.119188)>| =     0.00224463
 # 57 1 |<O|XDIPLEN |i(15.142082)>| =     0.00521264
 # 59 1 |<O|XDIPLEN |i(15.230859)>| =     0.00383376
 # 61 1 |<O|XDIPLEN |i(15.272197)>| =     0.00253529
 # 63 1 |<O|YDIPLEN |i(14.821755)>| =     0.00769311
 # 65 1 |<O|YDIPLEN |i(14.879905)>| =     0.00178970
 # 67 1 |<O|YDIPLEN |i(14.903201)>| =     0.04729925
 # 69 1 |<O|YDIPLEN |i(14.957082)>| =     0.02399345
 # 71 1 |<O|YDIPLEN |i(14.973627)>| =     0.01996064
 # 73 1 |<O|YDIPLEN |i(15.009773)>| =     0.00014682
 # 75 1 |<O|YDIPLEN |i(15.032172)>| =     0.01319895
 # 77 1 |<O|YDIPLEN |i(15.068030)>| =     0.00896519
 # 79 1 |<O|YDIPLEN |i(15.079172)>| =     0.00184465
 # 81 1 |<O|YDIPLEN |i(15.096514)>| =     0.00996568
 # 83 1 |<O|YDIPLEN |i(15.108792)>| =     0.01488666
 # 85 1 |<O|YDIPLEN |i(15.119188)>| =     0.00483144
 # 87 1 |<O|YDIPLEN |i(15.142082)>| =     0.00438026
 # 89 1 |<O|YDIPLEN |i(15.230859)>| =     0.01213428
 # 91 1 |<O|YDIPLEN |i(15.272197)>| =     0.01575349
 # 93 1 |<O|ZDIPLEN |i(14.821755)>| =     0.02339661
 # 95 1 |<O|ZDIPLEN |i(14.879905)>| =     0.01578500
 # 97 1 |<O|ZDIPLEN |i(14.903201)>| =     0.03505604
 # 99 1 |<O|ZDIPLEN |i(14.957082)>| =    -0.00020603
 #101 1 |<O|ZDIPLEN |i(14.973627)>| =     0.03457756
 #103 1 |<O|ZDIPLEN |i(15.009773)>| =     0.00404088
 #105 1 |<O|ZDIPLEN |i(15.032172)>| =     0.00281408
 #107 1 |<O|ZDIPLEN |i(15.068030)>| =     0.00009067
 #109 1 |<O|ZDIPLEN |i(15.079172)>| =     0.00115566
 #111 1 |<O|ZDIPLEN |i(15.096514)>| =     0.00794867
 #113 1 |<O|ZDIPLEN |i(15.108792)>| =     0.02443975
 #115 1 |<O|ZDIPLEN |i(15.119188)>| =     0.00025683
 #117 1 |<O|ZDIPLEN |i(15.142082)>| =     0.00123368
 #119 1 |<O|ZDIPLEN |i(15.230859)>| =     0.00079982
 #121 1 |<O|ZDIPLEN |i(15.272197)>| =     0.00636676

 THE_END   
