

     ************************************************************************
     *************** Dalton - An Electronic Structure Program ***************
     ************************************************************************

    This is output from DALTON release Dalton2017.alpha (2016)
         ( Web site: http://daltonprogram.org )

   ----------------------------------------------------------------------------

    NOTE:
     
    Dalton is an experimental code for the evaluation of molecular
    properties using (MC)SCF, DFT, CI, and CC wave functions.
    The authors accept no responsibility for the performance of
    the code or for the correctness of the results.
     
    The code (in whole or part) is provided under a licence and
    is not to be reproduced for further distribution without
    the written permission of the authors or their representatives.
     
    See the home page "http://daltonprogram.org" for further information.
     
    If results obtained with this code are published,
    the appropriate citations would be both of:
     
       K. Aidas, C. Angeli, K. L. Bak, V. Bakken, R. Bast,
       L. Boman, O. Christiansen, R. Cimiraglia, S. Coriani,
       P. Dahle, E. K. Dalskov, U. Ekstroem,
       T. Enevoldsen, J. J. Eriksen, P. Ettenhuber, B. Fernandez,
       L. Ferrighi, H. Fliegl, L. Frediani, K. Hald, A. Halkier,
       C. Haettig, H. Heiberg, T. Helgaker, A. C. Hennum,
       H. Hettema, E. Hjertenaes, S. Hoest, I.-M. Hoeyvik,
       M. F. Iozzi, B. Jansik, H. J. Aa. Jensen, D. Jonsson,
       P. Joergensen, J. Kauczor, S. Kirpekar,
       T. Kjaergaard, W. Klopper, S. Knecht, R. Kobayashi, H. Koch,
       J. Kongsted, A. Krapp, K. Kristensen, A. Ligabue,
       O. B. Lutnaes, J. I. Melo, K. V. Mikkelsen, R. H. Myhre,
       C. Neiss, C. B. Nielsen, P. Norman, J. Olsen,
       J. M. H. Olsen, A. Osted, M. J. Packer, F. Pawlowski,
       T. B. Pedersen, P. F. Provasi, S. Reine, Z. Rinkevicius,
       T. A. Ruden, K. Ruud, V. Rybkin, P. Salek, C. C. M. Samson,
       A. Sanchez de Meras, T. Saue, S. P. A. Sauer,
       B. Schimmelpfennig, K. Sneskov, A. H. Steindal,
       K. O. Sylvester-Hvid, P. R. Taylor, A. M. Teale,
       E. I. Tellgren, D. P. Tew, A. J. Thorvaldsen, L. Thoegersen,
       O. Vahtras, M. A. Watson, D. J. D. Wilson, M. Ziolkowski
       and H. Agren,
       "The Dalton quantum chemistry program system",
       WIREs Comput. Mol. Sci. 2014, 4:269–284 (doi: 10.1002/wcms.1172)
     
    and
     
       Dalton, a Molecular Electronic Structure Program,
       Release Dalton2017.alpha (2016), see http://daltonprogram.org
   ----------------------------------------------------------------------------

    Authors in alphabetical order (major contribution(s) in parenthesis):

  Kestutis Aidas,           Vilnius University,           Lithuania   (QM/MM)
  Celestino Angeli,         University of Ferrara,        Italy       (NEVPT2)
  Keld L. Bak,              UNI-C,                        Denmark     (AOSOPPA, non-adiabatic coupling, magnetic properties)
  Vebjoern Bakken,          University of Oslo,           Norway      (DALTON; geometry optimizer, symmetry detection)
  Radovan Bast,             UiT The Arctic U. of Norway,  Norway      (DALTON installation and execution frameworks)
  Pablo Baudin,             University of Valencia,       Spain       (Cholesky excitation energies)
  Linus Boman,              NTNU,                         Norway      (Cholesky decomposition and subsystems)
  Ove Christiansen,         Aarhus University,            Denmark     (CC module)
  Renzo Cimiraglia,         University of Ferrara,        Italy       (NEVPT2)
  Sonia Coriani,            University of Trieste,        Italy       (CC module, MCD in RESPONS)
  Janusz Cukras,            University of Trieste,        Italy       (MChD in RESPONS)
  Paal Dahle,               University of Oslo,           Norway      (Parallelization)
  Erik K. Dalskov,          UNI-C,                        Denmark     (SOPPA)
  Thomas Enevoldsen,        Univ. of Southern Denmark,    Denmark     (SOPPA)
  Janus J. Eriksen,         Aarhus University,            Denmark     (Polarizable embedding model, TDA)
  Rasmus Faber,             University of Copenhagen,     Denmark     (Vib.avg. NMR with SOPPA, parallel AO-SOPPA)
  Berta Fernandez,          U. of Santiago de Compostela, Spain       (doublet spin, ESR in RESPONS)
  Lara Ferrighi,            Aarhus University,            Denmark     (PCM Cubic response)
  Heike Fliegl,             University of Oslo,           Norway      (CCSD(R12))
  Luca Frediani,            UiT The Arctic U. of Norway,  Norway      (PCM)
  Bin Gao,                  UiT The Arctic U. of Norway,  Norway      (Gen1Int library)
  Christof Haettig,         Ruhr-University Bochum,       Germany     (CC module)
  Kasper Hald,              Aarhus University,            Denmark     (CC module)
  Asger Halkier,            Aarhus University,            Denmark     (CC module)
  Frederik Beyer Hansen,    University of Copenhagen,     Denmark     (Parallel AO-SOPPA)
  Erik D. Hedegaard,        Univ. of Southern Denmark,    Denmark     (Polarizable embedding model, QM/MM)
  Hanne Heiberg,            University of Oslo,           Norway      (geometry analysis, selected one-electron integrals)
  Trygve Helgaker,          University of Oslo,           Norway      (DALTON; ABACUS, ERI, DFT modules, London, and much more)
  Alf Christian Hennum,     University of Oslo,           Norway      (Parity violation)
  Hinne Hettema,            University of Auckland,       New Zealand (quadratic response in RESPONS; SIRIUS supersymmetry)
  Eirik Hjertenaes,         NTNU,                         Norway      (Cholesky decomposition)
  Pi A. B. Haase,           University of Copenhagen,     Denmark     (Triplet AO-SOPPA)
  Maria Francesca Iozzi,    University of Oslo,           Norway      (RPA)
  Brano Jansik              Technical Univ. of Ostrava    Czech Rep.  (DFT cubic response)
  Hans Joergen Aa. Jensen,  Univ. of Southern Denmark,    Denmark     (DALTON; SIRIUS, RESPONS, ABACUS modules, London, and much more)
  Dan Jonsson,              UiT The Arctic U. of Norway,  Norway      (cubic response in RESPONS module)
  Poul Joergensen,          Aarhus University,            Denmark     (RESPONS, ABACUS, and CC modules)
  Maciej Kaminski,          University of Warsaw,         Poland      (CPPh in RESPONS)
  Joanna Kauczor,           Linkoeping University,        Sweden      (Complex polarization propagator (CPP) module)
  Sheela Kirpekar,          Univ. of Southern Denmark,    Denmark     (Mass-velocity & Darwin integrals)
  Wim Klopper,              KIT Karlsruhe,                Germany     (R12 code in CC, SIRIUS, and ABACUS modules)
  Stefan Knecht,            ETH Zurich,                   Switzerland (Parallel CI and MCSCF)
  Rika Kobayashi,           Australian National Univ.,    Australia   (DIIS in CC, London in MCSCF)
  Henrik Koch,              NTNU,                         Norway      (CC module, Cholesky decomposition)
  Jacob Kongsted,           Univ. of Southern Denmark,    Denmark     (Polarizable embedding model, QM/MM)
  Andrea Ligabue,           University of Modena,         Italy       (CTOCD, AOSOPPA)
  Nanna H. List             Univ. of Southern Denmark,    Denmark     (Polarizable embedding model)
  Ola B. Lutnaes,           University of Oslo,           Norway      (DFT Hessian)
  Juan I. Melo,             University of Buenos Aires,   Argentina   (LRESC, Relativistic Effects on NMR Shieldings)
  Kurt V. Mikkelsen,        University of Copenhagen,     Denmark     (MC-SCRF and QM/MM)
  Rolf H. Myhre,            NTNU,                         Norway      (Cholesky, subsystems and ECC2)
  Christian Neiss,          Univ. Erlangen-Nuernberg,     Germany     (CCSD(R12))
  Christian B. Nielsen,     University of Copenhagen,     Denmark     (QM/MM)
  Patrick Norman,           Linkoeping University,        Sweden      (Cubic response and complex frequency response in RESPONS)
  Jeppe Olsen,              Aarhus University,            Denmark     (SIRIUS CI/density modules)
  Jogvan Magnus H. Olsen,   Univ. of Southern Denmark,    Denmark     (Polarizable embedding model, QM/MM)
  Anders Osted,             Copenhagen University,        Denmark     (QM/MM)
  Martin J. Packer,         University of Sheffield,      UK          (SOPPA)
  Filip Pawlowski,          Kazimierz Wielki University,  Poland      (CC3)
  Morten N. Pedersen,       Univ. of Southern Denmark,    Denmark     (Polarizable embedding model)
  Thomas B. Pedersen,       University of Oslo,           Norway      (Cholesky decomposition)
  Patricio F. Provasi,      University of Northeastern,   Argentina   (Analysis of coupling constants in localized orbitals)
  Zilvinas Rinkevicius,     KTH Stockholm,                Sweden      (open-shell DFT, ESR)
  Elias Rudberg,            KTH Stockholm,                Sweden      (DFT grid and basis info)
  Torgeir A. Ruden,         University of Oslo,           Norway      (Numerical derivatives in ABACUS)
  Kenneth Ruud,             UiT The Arctic U. of Norway,  Norway      (DALTON; ABACUS magnetic properties and much more)
  Pawel Salek,              KTH Stockholm,                Sweden      (DALTON; DFT code)
  Claire C. M. Samson       University of Karlsruhe       Germany     (Boys localization, r12 integrals in ERI)
  Alfredo Sanchez de Meras, University of Valencia,       Spain       (CC module, Cholesky decomposition)
  Trond Saue,               Paul Sabatier University,     France      (direct Fock matrix construction)
  Stephan P. A. Sauer,      University of Copenhagen,     Denmark     (SOPPA(CCSD), SOPPA prop., AOSOPPA, vibrational g-factors)
  Bernd Schimmelpfennig,    Forschungszentrum Karlsruhe,  Germany     (AMFI module)
  Kristian Sneskov,         Aarhus University,            Denmark     (Polarizable embedding model, QM/MM)
  Arnfinn H. Steindal,      UiT The Arctic U. of Norway,  Norway      (parallel QM/MM, Polarizable embedding model)
  Casper Steinmann,         Univ. of Southern Denmark,    Denmark     (QFIT, Polarizable embedding model)
  K. O. Sylvester-Hvid,     University of Copenhagen,     Denmark     (MC-SCRF)
  Peter R. Taylor,          VLSCI/Univ. of Melbourne,     Australia   (Symmetry handling ABACUS, integral transformation)
  Andrew M. Teale,          University of Nottingham,     England     (DFT-AC, DFT-D)
  David P. Tew,             University of Bristol,        England     (CCSD(R12))
  Olav Vahtras,             KTH Stockholm,                Sweden      (triplet response, spin-orbit, ESR, TDDFT, open-shell DFT)
  David J. Wilson,          La Trobe University,          Australia   (DFT Hessian and DFT magnetizabilities)
  Hans Agren,               KTH Stockholm,                Sweden      (SIRIUS module, RESPONS, MC-SCRF solvation model)
 --------------------------------------------------------------------------------

     Date and time (Linux)  : Thu Dec 20 05:47:38 2018
     Host name              : s71p32.deic.sdu.dk                      

 * Work memory size             :  2048000000 = 15.259 gigabytes.

 * Directories for basis set searches:
   1) /work/sdujk/reinholdt/ECP-Sonia/mixed-basis
   2) /gpfs/gss1/work/sdujk/reinholdt/Programs/dalton-private/pe-cvs/basis


Compilation information
-----------------------

 Who compiled             | reinholdt
 Host                     | fe1.deic.sdu.dk
 System                   | Linux-3.10.0-327.36.3.el7.x86_64
 CMake generator          | Unix Makefiles
 Processor                | x86_64
 64-bit integers          | ON
 MPI                      | OFF
 Fortran compiler         | /opt/sys/apps/intel/2018.05/compilers_and_librarie
                          | s_2018.3.222/linux/bin/intel64/ifort
 Fortran compiler version | ifort (IFORT) 18.0.3 20180410
 C compiler               | /opt/sys/apps/intel/2018.05/compilers_and_librarie
                          | s_2018.3.222/linux/bin/intel64/icc
 C compiler version       | icc (ICC) 18.0.3 20180410
 C++ compiler             | /opt/sys/apps/intel/2018.05/compilers_and_librarie
                          | s_2018.3.222/linux/bin/intel64/icpc
 C++ compiler version     | icpc (ICC) 18.0.3 20180410
 Static linking           | OFF
 Last Git revision        | 252a54078a0f9a1f0a59b3262fa4a57829155fe9
 Git branch               | pe/cc-cvs
 Configuration time       | 2018-12-09 12:09:40.474621


   Content of the .dal input file
 ----------------------------------

**DALTON
.RUN WAVE FUNCTIONS
.PEQM
**INTEGRALS
.DIPLEN
**WAVE FUNCTIONS
.CC
*PRINT
!To check the origin of excit
.PRINTL
   0 11
*SCF INP
.THRESH
1.0D-7
*CC INP
.CCSD
.THRLEQ
 1.0D-9
.THRENR
 1.0D-10
.FROIMP
4
0
.PRINT
 1
.MAX IT
 1200
.MAXRED
 1200
.MXLRV
1199
*PECC
*CCEXCI
.NCCEXC
 15
.CVSEPARA
1
1
*CCLRSD
.DIPOLE
**END OF DALTON INPUT


   Content of the .mol file
 ----------------------------

ATOMBASIS


Atomtypes=5 Charge=1 Nosymm Angstrom
   7.00000    1    Basis=6-311++G**
N          0.000000        0.000000        0.000000
   1.00000    4    Basis=6-311++G**
H         -0.112056        0.826728       -0.621615
H          0.861780       -0.386913       -0.433710
H         -0.830681       -0.681981        0.014581
H          0.326220        0.231556        0.925057
   8.00000    4    Basis=6-311G**
O          0.232816        2.105672       -1.793888
O         -2.413538       -1.137317       -0.152441
O          2.309668       -0.154431        1.652299
O          2.255505       -1.317352       -1.498130
   1.00000    8    Basis=6-311G**
H         -0.261784        2.028034       -2.700384
H          1.198413        2.216169       -2.069678
H         -2.512175       -2.113269       -0.337352
H         -3.091959       -0.666527        0.410825
H          2.707529        0.669763        1.328129
H          2.328645        0.007792        2.619872
H          2.387514       -2.270762       -1.217689
H          3.119135       -0.823974       -1.305614
Charge=8.0   Atoms=59    Basis=pointcharge ECP=pe_ecp
  1       -5.839844        2.362814       -5.400453
  2        2.982671        2.066879       -2.502284
  3        3.984900        4.584000       -2.352445
  4       -6.061978       -3.756432       -5.378298
  5        2.854035        2.350672        0.505114
  6       -6.046130        4.564501       -3.995925
  7       -0.855137       -5.086892        3.932618
  8        4.440689       -1.931346        5.453022
  9        5.458106       -5.614364        2.267959
 10        0.159642        2.732544        6.107567
 11       -4.326003        0.363713        1.098686
 12        4.214025       -5.732541       -5.294787
 13        1.661895       -1.775293       -4.326776
 14       -5.629423        0.653012       -1.722252
 15        5.169536       -2.348799       -3.187936
 16        5.515225        3.407323        1.194581
 17        4.019875        3.887227        6.126514
 18       -0.975212        3.898908        0.147971
 19        5.364769        0.527547        1.405705
 20        1.087751        5.928706       -3.208780
 21       -4.868698       -2.691993        2.039274
 22       -0.104770       -2.804653        2.540523
 23       -1.407160        1.261913        4.437994
 24       -4.033892       -4.838483       -2.931241
 25       -0.740588        4.506384       -4.452598
 26        5.756527       -3.040404       -0.228992
 27       -1.916001       -4.086319       -5.801899
 28        3.064556        5.879839        0.821084
 29       -2.902947       -0.053772       -2.811745
 30        1.635290       -4.678526        5.070699
 31       -0.064920       -0.315465       -5.616153
 32        1.741663        0.284620        4.510263
 33       -2.492211        2.332612        2.217135
 34       -4.062271       -5.267097        0.991444
 35       -3.258469        5.754201       -5.394018
 36        3.783114       -3.712098        3.349004
 37       -3.962625        3.997348        5.012482
 38       -2.471166       -3.980042       -0.738910
 39        5.106601        0.442884        4.282915
 40        3.209896       -2.526499        0.924306
 41        1.550238        4.660046        4.717197
 42        4.405880        0.114341       -1.038834
 43       -3.356091        1.436905       -5.946093
 44       -5.044631       -1.670101        4.764273
 45        5.043126       -0.068228       -4.490298
 46        1.312400        4.355751        1.859199
 47       -1.192529        1.483941       -3.971966
 48       -1.453373       -2.012164        4.934075
 49        0.649164       -4.216719       -4.804971
 50       -3.609778       -2.365332       -4.328358
 51        2.744373        1.687144       -5.201457
 52        5.733138        4.574759        4.145633
 53        3.376987       -4.510223       -2.602172
 54        1.671494       -4.514868       -0.419536
 55        6.014687       -5.556510       -1.862735
 56       -3.137196        4.384972       -2.708982
 57       -2.447866        5.204233        2.937591
 58       -5.285137        4.872088       -0.428326
 59       -0.560746       -6.019430       -1.073272


       *******************************************************************
       *********** Output from DALTON general input processing ***********
       *******************************************************************

 --------------------------------------------------------------------------------
   Overall default print level:    0
   Print level for DALTON.STAT:    1

    HERMIT 1- and 2-electron integral sections will be executed
    "Old" integral transformation used (limited to max 255 basis functions)
    Wave function sections will be executed (SIRIUS module)
    Environment is modeled using polarizable embedding scheme (PE library)
 --------------------------------------------------------------------------------


   ****************************************************************************
   *************** Output of molecule and basis set information ***************
   ****************************************************************************


    The two title cards from your ".mol" input:
    ------------------------------------------------------------------------
 1:                                                                         
 2:                                                                         
    ------------------------------------------------------------------------

  Coordinates are entered in Angstrom and converted to atomic units.
          - Conversion factor : 1 bohr = 0.52917721 A

  Atomic type no.    1
  --------------------
  Nuclear charge:   7.00000
  Number of symmetry independent centers:    1
  Number of basis sets to read;    2
  The basis set is "6-311++G**" from the basis set library.
  Basis set file used for this atomic type with Z =   7 :
     "/gpfs/gss1/work/sdujk/reinholdt/Programs/dalton-private/pe-cvs/basis/6-311++G**"

  Info about the basis set file: your basis has no documentation.
  Basis set: 6-311++G**                                                                      

  Atomic type no.    2
  --------------------
  Nuclear charge:   1.00000
  Number of symmetry independent centers:    4
  Number of basis sets to read;    2
  The basis set is "6-311++G**" from the basis set library.
  Basis set file used for this atomic type with Z =   1 :
     "/gpfs/gss1/work/sdujk/reinholdt/Programs/dalton-private/pe-cvs/basis/6-311++G**"

  Info about the basis set file: your basis has no documentation.
  Basis set: 6-311++G**                                                                      

  Atomic type no.    3
  --------------------
  Nuclear charge:   8.00000
  Number of symmetry independent centers:    4
  Number of basis sets to read;    2
  The basis set is "6-311G**" from the basis set library.
  Basis set file used for this atomic type with Z =   8 :
     "/gpfs/gss1/work/sdujk/reinholdt/Programs/dalton-private/pe-cvs/basis/6-311G**"

  Info about the basis set file: your basis has no documentation.
  Basis set: 6-311G**                                                                        

  Atomic type no.    4
  --------------------
  Nuclear charge:   1.00000
  Number of symmetry independent centers:    8
  Number of basis sets to read;    2
  The basis set is "6-311G**" from the basis set library.
  Basis set file used for this atomic type with Z =   1 :
     "/gpfs/gss1/work/sdujk/reinholdt/Programs/dalton-private/pe-cvs/basis/6-311G**"

  Info about the basis set file: your basis has no documentation.
  Basis set: 6-311G**                                                                        

  Atomic type no.    5
  --------------------
  Nuclear charge:   8.00000
  Number of symmetry independent centers:   59
  Number of basis sets to read;    2
     "/work/sdujk/reinholdt/ECP-Sonia/mixed-basis/ecp_data/pe_ecp"
     Pseudo potential parameters for ECP type  1.
     -----------------------------------------------
     Atomic charge  :  8.0
     Effectiv charge:  0.0
     Core electrons :    8
     Max angular mom:    2
  This is a point charge without basis functions.


                         SYMGRP: Point group information
                         -------------------------------

@    Point group: C1 


                                 Isotopic Masses
                                 ---------------

                           N          14.003074
                           H           1.007825
                           H           1.007825
                           H           1.007825
                           H           1.007825
                           O          15.994915
                           O          15.994915
                           O          15.994915
                           O          15.994915
                           H           1.007825
                           H           1.007825
                           H           1.007825
                           H           1.007825
                           H           1.007825
                           H           1.007825
                           H           1.007825
                           H           1.007825

                       Total mass:    90.076634 amu
                       Natural abundance:  98.500 %

 Center-of-mass coordinates (a.u.):    0.929533   -0.189299   -0.673000


  Atoms and basis sets
  --------------------

  Number of atom types :    5
  Total number of atoms:   76

  label    atoms   charge   prim   cont     basis
  ----------------------------------------------------------------------
  N           1    7.0000    35    22      [12s6p1d|5s4p1d]                                   
  H           4    1.0000     9     7      [6s1p|4s1p]                                        
  O           4    8.0000    31    18      [11s5p1d|4s3p1d]                                   
  H           8    1.0000     8     6      [5s1p|3s1p]                                        
   5         59    0.0000     0     0      Point Charge                                       
  ----------------------------------------------------------------------
  total:     76   51.0000   259   170
  ----------------------------------------------------------------------
  Spherical harmonic basis used.

  Threshold for neglecting AO integrals:  1.00D-12


  Cartesian Coordinates (a.u.)
  ----------------------------

  Total number of coordinates:  228
  N       :     1  x   0.0000000000    2  y   0.0000000000    3  z   0.0000000000
  H       :     4  x  -0.2117551507    5  y   1.5622894999    6  z  -1.1746821052
  H       :     7  x   1.6285281800    8  y  -0.7311596042    9  z  -0.8195931177
  H       :    10  x  -1.5697595872   11  y  -1.2887573124   12  z   0.0275540966
  H       :    13  x   0.6164664565   14  y   0.4375774226   15  z   1.7481043800
  O       :    16  x   0.4399584775   17  y   3.9791433891   18  z  -3.3899570189
  O       :    19  x  -4.5609258123   20  y  -2.1492176473   21  z  -0.2880717402
  O       :    22  x   4.3646399597   23  y  -0.2918322952   24  z   3.1223925866
  O       :    25  x   4.2622867236   26  y  -2.4894344902   27  z  -2.8310553996
  H       :    28  x  -0.4947000639   29  y   3.8324288322   30  z  -5.1029861923
  H       :    31  x   2.2646723546   32  y   4.1879524567   33  z  -3.9111245869
  H       :    34  x  -4.7473227281   35  y  -3.9934996384   36  z  -0.6375028877
  H       :    37  x  -5.8429556997   38  y  -1.2595534849   39  z   0.7763467353
  H       :    40  x   5.1164882855   41  y   1.2656686387   42  z   2.5098000687
  H       :    43  x   4.4005012923   44  y   0.0147247460   45  z   4.9508405625
  H       :    46  x   4.5117475796   47  y  -4.2911182750   48  z  -2.3010987154
  H       :    49  x   5.8943108969   50  y  -1.5570851941   51  z  -2.4672528850
    1     :    52  x -11.0357057727   53  y   4.4650713443   54  z -10.2053771209
    2     :    55  x   5.6364313110   56  y   3.9058352435   57  z  -4.7286314470
    3     :    58  x   7.5303696355   59  y   8.6625045570   60  z  -4.4454767741
    4     :    61  x -11.4554781957   62  y  -7.0986276872   63  z -10.1635102386
    5     :    64  x   5.3933445011   65  y   4.4421262897   66  z   0.9545271219
    6     :    67  x -11.4255298161   68  y   8.6256567873   69  z  -7.5512038660
    7     :    70  x  -1.6159747293   71  y  -9.6128327074   72  z   7.4315709742
    8     :    73  x   8.3916860163   74  y  -3.6497149926   75  z  10.3047181336
    9     :    76  x  10.3143255012   77  y -10.6096103260   78  z   4.2858213727
   10     :    79  x   0.3016796580   80  y   5.1637597845   81  z  11.5416289200
   11     :    82  x  -8.1749608859   83  y   0.6873179581   84  z   2.0762156374
   12     :    85  x   7.9633531339   86  y -10.8329324903   87  z -10.0056973202
   13     :    88  x   3.1405263985   89  y  -3.3548175616   90  z  -8.1764216442
   14     :    91  x -10.6380677117   92  y   1.2340138363   93  z  -3.2545845982
   15     :    94  x   9.7690072333   95  y  -4.4385868327   96  z  -6.0243259440
   16     :    97  x  10.4222647677   98  y   6.4389072894   99  z   2.2574309241
   17     :   100  x   7.5964628067  101  y   7.3457944157  102  z  11.5774335609
   18     :   103  x  -1.8428835938  104  y   7.3678683065  105  z   0.2796246644
   19     :   106  x  10.1379441339  107  y   0.9969193481  108  z   2.6563974625
   20     :   109  x   2.0555514822  110  y  11.2036306156  111  z  -6.0637153954
   21     :   112  x  -9.2005058053  113  y  -5.0871295004  114  z   3.8536693538
   22     :   115  x  -0.1979866061  116  y  -5.3000260456  117  z   4.8008926842
   23     :   118  x  -2.6591470140  119  y   2.3846699636  120  z   8.3865932044
   24     :   121  x  -7.6229510978  122  y  -9.1434077304  123  z  -5.5392426964
   25     :   124  x  -1.3995084915  125  y   8.5158315741  126  z  -8.4141907647
   26     :   127  x  10.8782594611  128  y  -5.7455308693  129  z  -0.4327321648
   27     :   130  x  -3.6207171452  131  y  -7.7220237694  132  z -10.9640001149
   28     :   133  x   5.7911715347  134  y  11.1112853691  135  z   1.5516238856
   29     :   136  x  -5.4857747854  137  y  -0.1016143532  138  z  -5.3134279833
   30     :   139  x   3.0902502349  140  y  -8.8411328087  141  z   9.5822323723
   31     :   142  x  -0.1226810200  143  y  -0.5961424520  144  z -10.6129910461
   32     :   145  x   3.2912660720  146  y   0.5378538497  147  z   8.5231618217
   33     :   148  x  -4.7095962357  149  y   4.4079978359  150  z   4.1897779321
   34     :   151  x  -7.6765796355  152  y  -9.9533708038  153  z   1.8735576283
   35     :   154  x  -6.1576139968  155  y  10.8738639582  156  z -10.1932167333
   36     :   157  x   7.1490493596  158  y  -7.0148485691  159  z   6.3287003515
   37     :   160  x  -7.4882759861  161  y   7.5538929463  162  z   9.4722181865
   38     :   163  x  -4.6698269494  164  y  -7.5211893460  165  z  -1.3963375310
   39     :   166  x   9.6500773196  167  y   0.8369294651  168  z   8.0935363666
   40     :   169  x   6.0658243297  170  y  -4.7743911651  171  z   1.7466851957
   41     :   172  x   2.9295252486  173  y   8.8062106699  174  z   8.9142104076
   42     :   175  x   8.3259065396  176  y   0.2160731749  177  z  -1.9631117493
   43     :   178  x  -6.3420928406  179  y   2.7153569176  180  z -11.2364872837
   44     :   181  x  -9.5329709917  182  y  -3.1560334911  183  z   9.0031711547
   45     :   184  x   9.5301269538  185  y  -0.1289322341  186  z  -8.4854334396
   46     :   187  x   2.4800765664  188  y   8.2311764587  189  z   3.5133769219
   47     :   190  x  -2.2535532061  191  y   2.8042420756  192  z  -7.5059279178
   48     :   193  x  -2.7464769275  194  y  -3.8024388786  195  z   9.3240504302
   49     :   196  x   1.2267421702  197  y  -7.9684440561  198  z  -9.0800792285
   50     :   199  x  -6.8214917920  200  y  -4.4698296747  201  z  -8.1794111909
   51     :   202  x   5.1861133548  203  y   3.1882400934  204  z  -9.8293291809
   52     :   205  x  10.8340606568  206  y   8.6450415978  207  z   7.8341109847
   53     :   208  x   6.3815805577  209  y  -8.5230862326  210  z  -4.9173924101
   54     :   211  x   3.1586658796  212  y  -8.5318640105  213  z  -0.7928081396
   55     :   214  x  11.3661111576  215  y -10.5002821108  216  z  -3.5200589934
   56     :   217  x  -5.9284412404  218  y   8.2863961458  219  z  -5.1192340575
   57     :   220  x  -4.6257963307  221  y   9.8345750607  222  z   5.5512424572
   58     :   223  x  -9.9874614631  224  y   9.2069119769  225  z  -0.8094188322
   59     :   226  x  -1.0596563657  227  y -11.3750741286  228  z  -2.0281901376

  Max    interatomic separation is   17.2985 Angstrom (   32.6895 Bohr)
  between atoms   69 and   21, " 52   " and "  4   ".

  Min HX interatomic separation is    0.9709 Angstrom (    1.8348 Bohr)

  Min YX interatomic separation is    2.5437 Angstrom (    4.8070 Bohr)


  Bond distances (Angstrom):
  --------------------------

                  atom 1     atom 2       distance
                  ------     ------       --------
  bond distance:  H          N            1.040404
  bond distance:  H          N            1.039457
  bond distance:  H          N            1.074868
  bond distance:  H          N            1.007853
  bond distance:  H          O            1.035564
  bond distance:  H          O            1.010271
  bond distance:  H          O            0.998200
  bond distance:  H          O            0.999583
  bond distance:  H          O            0.970915
  bond distance:  H          O            0.981261
  bond distance:  H          O            1.002529
  bond distance:  H          O            1.013085


  Bond angles (degrees):
  ----------------------

                  atom 1     atom 2     atom 3         angle
                  ------     ------     ------         -----
  bond angle:     H          N          H             97.804
  bond angle:     H          N          H            115.407
  bond angle:     H          N          H            113.621
  bond angle:     H          N          H            114.218
  bond angle:     H          N          H            101.545
  bond angle:     H          N          H            112.549
  bond angle:     H          O          H            103.046
  bond angle:     H          O          H            119.855
  bond angle:     H          O          H            100.426
  bond angle:     H          O          H            107.322




 Principal moments of inertia (u*A**2) and principal axes
 --------------------------------------------------------

   IA     282.370064          0.988279    0.003964    0.152606
   IB     392.125874         -0.105994   -0.701597    0.704646
   IC     470.084327         -0.109861    0.712563    0.692954


 Rotational constants
 --------------------

               A                   B                   C

           1789.7754           1288.8183           1075.0816 MHz
            0.059700            0.042990            0.035861 cm-1


@  Nuclear repulsion energy :  203.429446796516 Hartree

  Reading potential input file for polarizable embedding calculation
 
    .------------------------------------------------.
    | Information from polarizable embedding library |
    `------------------------------------------------´

      Number of classical sites:    177

      Multipole moments upto 0th order.

      Dipole-dipole polarizabilities.

      Iterative solver for induced moments will be used
      with convergence threshold: 1.0E-08
      Total charge of classical region:    0.0000
 

  Number of floating/multiple basis set orbitals :   59


                     .---------------------------------------.
                     | Starting in Integral Section (HERMIT) |
                     `---------------------------------------'



 ***************************************************************************************
 ****************** Output from **INTEGRALS input processing (HERMIT) ******************
 ***************************************************************************************



    *************************************************************************
    ****************** Output from HERMIT input processing ******************
    *************************************************************************


 Default print level:        1

 * Nuclear model: Point charge

 Calculation of one- and two-electron Hamiltonian integrals.

 The following one-electron property integrals are calculated as requested:
          - overlap integrals
          - dipole length integrals

 Center of mass  (bohr):      0.929532560839     -0.189298777579     -0.672999514538
 Operator center (bohr):      0.000000000000      0.000000000000      0.000000000000
 Gauge origin    (bohr):      0.000000000000      0.000000000000      0.000000000000
 Dipole origin   (bohr):      0.000000000000      0.000000000000      0.000000000000


     ************************************************************************
     ************************** Output from HERINT **************************
     ************************************************************************



                      Nuclear contribution to dipole moments
                      --------------------------------------

                 au               Debye          C m (/(10**-30)

      x     47.61389660       121.02244589       403.68742661
      y     -9.43126026       -23.97187095       -79.96155443
      z    -33.49512722       -85.13611595      -283.98351485


  Time used in ONEDRV     is       4.83 seconds

 Threshold for neglecting two-electron integrals:  1.00D-12
 HERMIT - Number of two-electron integrals written:    52438914 ( 49.6% )
 HERMIT - Megabytes written:                            600.455

  Time used in TWOINT     is       9.21 seconds
  Total CPU  time used in HERMIT:  14.42 seconds
  Total wall time used in HERMIT:  12.51 seconds


                        .----------------------------------.
                        | End of Integral Section (HERMIT) |
                        `----------------------------------'



                   .--------------------------------------------.
                   | Starting in Wave Function Section (SIRIUS) |
                   `--------------------------------------------'

 INPUT: SIMPLE =  F
NCCEXCI for singlet:   15
 CCSD_INPUT: core-val requested
 Requested number of core orbs per sym
                     1
 Indices of requested core orbs
                     1

 *** Output from Huckel module :

     Using EWMO model:          T
     Using EHT  model:          F
     Number of Huckel orbitals each symmetry:   37

 EWMO - Energy Weighted Maximum Overlap - is a Huckel type method,
        which normally is better than Extended Huckel Theory.
 Reference: Linderberg and Ohrn, Propagators in Quantum Chemistry (Wiley, 1973)

 Huckel EWMO eigenvalues for symmetry :  1
          -20.684779     -20.684501     -20.684233     -20.684118     -15.675603
           -1.813351      -1.618700      -1.595818      -1.575744      -1.480393
           -0.831393      -0.813496      -0.793122      -0.781569      -0.768643
           -0.757463      -0.740639      -0.696764      -0.670003      -0.649121
           -0.634528      -0.610394      -0.581192      -0.562200      -0.555478
           -0.267485      -0.251157      -0.248472      -0.231626      -0.189137
           -0.183689      -0.177472      -0.176552      -0.174364      -0.151309
           -0.142151      -0.139142

 **********************************************************************
 *SIRIUS* a direct, restricted step, second order MCSCF program       *
 **********************************************************************

 
     Date and time (Linux)  : Thu Dec 20 05:47:52 2018
     Host name              : s71p32.deic.sdu.dk                      

 Title lines from ".mol" input file:
                                                                             
                                                                             

 Print level on unit LUPRI =   2 is   0
 Print level on unit LUW4  =   2 is  11

@    (Integral direct) CC calculation.

@    This is a combination run starting with
@              a restricted, closed shell Hartree-Fock calculation


 Initial molecular orbitals are obtained according to
 ".MOSTART EWMO  " input option

@    QM part is embedded in an environment :

@         Model: PE

     Wave function specification
     ============================

     For the specification of the Coupled Cluster: see later.


     Wave function environment is modeled using the
     polarizable embedding model (PE library).

@    Wave function type        --- PE-CC ---
@    Number of closed shell electrons          50
@    Number of electrons in active shells       0
@    Total charge of the molecule               1

@    Spin multiplicity and 2 M_S                1         0
@    Total number of symmetries                 1 (point group: C1 )
@    Reference state symmetry                   1 (irrep name : A  )

     Orbital specifications
     ======================
@    Abelian symmetry species          All |    1
@                                          |  A  
                                       --- |  ---
@    Occupied SCF orbitals              25 |   25
@    Secondary orbitals                145 |  145
@    Total number of orbitals          170 |  170
@    Number of basis functions         170 |  170

     Optimization information
     ========================
@    Number of configurations                 1
@    Number of orbital rotations           3625
     ------------------------------------------
@    Total number of variables             3626

     Maximum number of Fock   iterations      0
     Maximum number of DIIS   iterations     60
     Maximum number of QC-SCF iterations     60
     Threshold for SCF convergence     1.00D-07


 Changes of defaults for CC:
 ---------------------------


 -Implicit frozen core calculation
 -Excitation energies calculated
 -One-photon absorption strengths will be calculated
 -Oscillator strengths calculated
  
* Read MO coefficients from SIRIUS.RST with label "NEWORB  " and header info: 20Dec18  REORTHO 


 ***********************************************
 ***** DIIS acceleration of SCF iterations *****
 ***********************************************

 C1-DIIS algorithm; max error vectors =    8
 -----------------------------------------------------------------------------

 *** DIIS iteration number    1
 RDSUPM called. NFMAT, ISYMDM(1:NFMAT)                     1
                     1

Calculating AOSUPINT
     (Precalculated AO two-electron integrals are transformed to P-supermatrix elements.
      Threshold for discarding integrals :  1.00D-12 )
  CPU  time used in FORMSUP    is   4.75 seconds
  WALL time used in FORMSUP    is   7.06 seconds

 ITDIIS, energy, error norm, change in energy, scr.thr., difden:
@ DIIS iter.   1    -360.212747812        3.95533D+00   -3.60D+02  -20    F

 (DIIS_RED) Control Parameters C2DIIS =         F NEVC =    1


 (DIIS_RED) B matrix:

               Column   1
       1      15.64459630
    ==== End of matrix output ====

 DIIS C vector; C2DIIS = F, LAMBDA = -1.56D+01
    1.000000
* Read MO coefficients from SIRIUS.RST with label "NEWORB  " and header info: 20Dec18  DIIS   1
      Virial theorem: -V/T =      2.003138
@    MULPOP   N      -0.15; H       0.24; H       0.21; H       0.21; H       0.19; O      -0.55; O      -0.54; O      -0.59; O      -0.59; H       0.31; 
@             H       0.32; H       0.32; H       0.32; H       0.32; H       0.32; H       0.32; H       0.32; 
   1  Level shift: doubly occupied orbital energies shifted by -2.00D-01

 DIIS Fock eigenvalues in symmetry 1
      -20.85438      -20.84438      -20.82617      -20.80443      -16.45663
       -1.73505       -1.68316       -1.64249       -1.63627       -1.60668
       -1.21894       -1.20804       -1.18262       -1.04935       -1.03830
       -1.01724       -0.97358       -0.93645       -0.89288       -0.88701
       -0.88298       -0.86998       -0.86451       -0.85386       -0.82983
       -0.03124        0.01597        0.03376        0.04799        0.09171
        0.09808        0.10452        0.11869        0.13118        0.15680
        0.16640        0.18104        0.19260        0.20383        0.20632
        0.22810        0.23820        0.25293        0.27479        0.28587
        0.42668        0.43181        0.44551        0.46927        0.47374
        0.48534        0.50186        0.52217        0.53304        0.54573
        0.57246        0.69918        0.71897        0.74500        0.76986
        0.80024        0.85065        0.89165        0.91702        0.94157
        0.96874        0.98006        1.00825        1.01884        1.04378
        1.04630        1.06028        1.07789        1.09148        1.14431
        1.24987        1.29638        1.31539        1.34690        1.35591
        1.37668        1.38193        1.39602        1.41469        1.42036
        1.48062        1.49291        1.53459        1.55474        1.56158
        1.60012        1.63910        1.68915        1.72529        1.72970
        1.77091        1.80029        1.80448        1.94546        1.98442
        2.02208        2.07123        2.07955        2.08895        2.10169
        2.17687        2.18715        2.19144        2.21893        2.24158
        2.24546        2.28453        2.44382        2.49025        2.52554
        2.58002        2.61571        2.63324        2.63932        2.66249
        2.67775        2.70533        2.71997        2.76343        2.78730
        2.80251        2.96577        3.04705        3.07901        3.13425
        3.30267        3.33428        3.34430        3.35250        3.36153
        3.36543        3.39552        3.40562        3.45711        3.50047
        3.51818        3.53222        3.83429        3.86937        3.88094
        3.98153        3.99135        4.05995        4.10785        4.12185
        4.64709        4.80642        4.84490        5.23380        5.26401
        5.28885        5.29490        5.63859        5.70202        5.72553
        5.75295        5.90310        5.93741        5.94762        6.02313
       36.41120       51.42501       51.44729       51.45853       51.46741
 Time used in FCKEIG, thr_jaco:   1.37D-01  5.30D-02  1.64D-04
 CPU and wall times used in FCKEIG, THR_FCKEIG:   1.37D-01  5.30D-02  3.96D-02
 -----------------------------------------------------------------------------

 *** DIIS iteration number    2
 RDSUPM called. NFMAT, ISYMDM(1:NFMAT)                     1
                     1

 ITDIIS, energy, error norm, change in energy, scr.thr., difden:
@ DIIS iter.   2    -361.108396704        1.14360D+00   -8.96D-01  -20    F

 (DIIS_RED) Control Parameters C2DIIS =         F NEVC =    2


 (DIIS_RED) B matrix:

               Column   1     Column   2
       1      15.64459630
       2       0.83468084     1.30781000
    ==== End of matrix output ====

 DIIS C vector; C2DIIS = F, LAMBDA = -1.29D+00
    0.030958    0.969042
* Read MO coefficients from SIRIUS.RST with label "NEWORB  " and header info: 20Dec18  DIIS   2
      Virial theorem: -V/T =      2.002598
@    MULPOP   N      -0.88; H       0.43; H       0.40; H       0.41; H       0.37; O      -0.60; O      -0.62; O      -0.57; O      -0.58; H       0.36; 
@             H       0.31; H       0.35; H       0.37; H       0.31; H       0.30; H       0.29; H       0.35; 
   2  Level shift: doubly occupied orbital energies shifted by -1.00D-01

 DIIS Fock eigenvalues in symmetry 1
      -20.79302      -20.78672      -20.77227      -20.76254      -15.63174
       -1.56577       -1.53371       -1.53328       -1.50390       -1.38724
       -0.91821       -0.91731       -0.89908       -0.89480       -0.88640
       -0.85448       -0.84742       -0.82238       -0.78227       -0.76273
       -0.75424       -0.74425       -0.72885       -0.71915       -0.69849
        0.00552        0.03952        0.05842        0.07209        0.12830
        0.13751        0.14305        0.16295        0.17270        0.18851
        0.21002        0.22018        0.23123        0.24497        0.25982
        0.26831        0.29466        0.30850        0.32934        0.35382
        0.46379        0.48066        0.50574        0.50925        0.52340
        0.53584        0.54247        0.56755        0.57944        0.58762
        0.61176        0.78848        0.83240        0.86841        0.88808
        0.90586        0.92476        0.93544        0.95894        0.97166
        1.00169        1.01955        1.04742        1.06646        1.08482
        1.09195        1.10920        1.14557        1.17353        1.24620
        1.32548        1.34881        1.35880        1.39116        1.41003
        1.43482        1.44230        1.44672        1.46366        1.47378
        1.53273        1.57994        1.61419        1.62484        1.64072
        1.68110        1.71620        1.74859        1.78682        1.81970
        1.84729        1.86572        1.89079        2.06040        2.08514
        2.11172        2.12578        2.13360        2.14172        2.20831
        2.24007        2.25615        2.27206        2.28283        2.30956
        2.33715        2.41604        2.54217        2.58786        2.61103
        2.67465        2.69584        2.71793        2.73649        2.73909
        2.75005        2.80719        2.82639        2.92311        2.95855
        2.97854        3.16595        3.23158        3.28509        3.32747
        3.36932        3.37839        3.38142        3.38544        3.40252
        3.41614        3.43744        3.48566        3.52334        3.54222
        3.55562        3.56820        3.86316        3.88762        3.90198
        4.01261        4.02481        4.07784        4.12648        4.15217
        5.03254        5.18808        5.20885        5.24667        5.28121
        5.29467        5.31333        5.65435        5.71467        5.72460
        5.75362        5.91121        5.94627        5.97383        6.04845
       37.11922       51.38227       51.39894       51.41016       51.43087
 Time used in FCKEIG, thr_jaco:   1.21D-01  3.60D-02  4.75D-05
 CPU and wall times used in FCKEIG, THR_FCKEIG:   1.21D-01  3.60D-02  1.14D-02
 -----------------------------------------------------------------------------

 *** DIIS iteration number    3
 RDSUPM called. NFMAT, ISYMDM(1:NFMAT)                     1
                     1

 ITDIIS, energy, error norm, change in energy, scr.thr., difden:
@ DIIS iter.   3    -361.186146809        3.81530D-01   -7.78D-02  -20    F

 (DIIS_RED) Control Parameters C2DIIS =         F NEVC =    3


 (DIIS_RED) B matrix:

               Column   1     Column   2     Column   3
       1      15.64459630
       2       0.83468084     1.30781000
       3       0.83430057    -0.00156228     0.14556537
    ==== End of matrix output ====

 DIIS C vector; C2DIIS = F, LAMBDA = -9.56D-02
   -0.049880    0.106066    0.943814
* Read MO coefficients from SIRIUS.RST with label "NEWORB  " and header info: 20Dec18  DIIS   3
      Virial theorem: -V/T =      2.003538
@    MULPOP   N      -0.77; H       0.42; H       0.38; H       0.41; H       0.33; O      -0.68; O      -0.70; O      -0.63; O      -0.65; H       0.40; 
@             H       0.34; H       0.37; H       0.40; H       0.34; H       0.33; H       0.31; H       0.39; 
   3  Level shift: doubly occupied orbital energies shifted by -5.00D-02

 DIIS Fock eigenvalues in symmetry 1
      -20.71153      -20.69208      -20.68665      -20.66348      -15.79136
       -1.50141       -1.46698       -1.46281       -1.43266       -1.38705
       -0.87503       -0.86878       -0.85130       -0.84879       -0.82670
       -0.82412       -0.78212       -0.75726       -0.71180       -0.69477
       -0.68701       -0.67435       -0.65429       -0.64920       -0.62258
        0.00961        0.04141        0.06274        0.07619        0.13442
        0.14266        0.14827        0.16689        0.17416        0.19266
        0.21493        0.22579        0.23666        0.24546        0.26577
        0.27273        0.30320        0.30832        0.32886        0.35454
        0.47596        0.48778        0.51297        0.51801        0.52741
        0.54109        0.55236        0.57118        0.58554        0.59593
        0.61664        0.79152        0.83777        0.86408        0.87723
        0.90260        0.92455        0.94642        0.97217        0.98501
        1.01554        1.03288        1.05772        1.08001        1.09870
        1.10831        1.12107        1.14362        1.17734        1.24676
        1.33106        1.36097        1.37219        1.40506        1.42486
        1.44848        1.45587        1.45978        1.47683        1.48615
        1.54308        1.58799        1.62187        1.63318        1.64934
        1.68677        1.72262        1.75804        1.79906        1.82588
        1.85788        1.87700        1.89416        2.05972        2.08924
        2.12364        2.13972        2.14736        2.15308        2.21447
        2.24985        2.26710        2.28918        2.29445        2.32541
        2.33541        2.41145        2.55061        2.59634        2.62010
        2.68602        2.70405        2.72721        2.74154        2.74770
        2.75927        2.81681        2.82959        2.92704        2.93200
        2.95127        3.14987        3.22890        3.26612        3.34421
        3.37452        3.39053        3.40484        3.41006        3.41426
        3.42072        3.46040        3.48637        3.55157        3.55403
        3.57391        3.58975        3.88574        3.91590        3.92764
        4.03732        4.05086        4.10742        4.15706        4.17512
        4.95409        5.11340        5.14629        5.27463        5.30483
        5.32352        5.33002        5.68088        5.74066        5.75800
        5.78629        5.94719        5.98033        5.99955        6.07759
       36.91605       51.41935       51.43847       51.45818       51.46756
 Time used in FCKEIG, thr_jaco:   1.18D-01  3.20D-02  1.58D-05
 CPU and wall times used in FCKEIG, THR_FCKEIG:   1.18D-01  3.20D-02  3.82D-03
 -----------------------------------------------------------------------------

 *** DIIS iteration number    4
 RDSUPM called. NFMAT, ISYMDM(1:NFMAT)                     1
                     1

 ITDIIS, energy, error norm, change in energy, scr.thr., difden:
@ DIIS iter.   4    -361.196900540        9.53039D-02   -1.08D-02  -20    F

 (DIIS_RED) Control Parameters C2DIIS =         F NEVC =    4


 (DIIS_RED) B matrix:

               Column   1     Column   2     Column   3     Column   4
       1      15.64459630
       2       0.83468084     1.30781000
       3       0.83430057    -0.00156228     0.14556537
       4       0.05724012     0.07822252     0.00574847     0.00908283
    ==== End of matrix output ====

 DIIS C vector; C2DIIS = F, LAMBDA = -4.95D-03
    0.000133   -0.060296   -0.009635    1.069798
* Read MO coefficients from SIRIUS.RST with label "NEWORB  " and header info: 20Dec18  DIIS   4
      Virial theorem: -V/T =      2.003494
@    MULPOP   N      -0.83; H       0.43; H       0.39; H       0.42; H       0.35; O      -0.69; O      -0.72; O      -0.64; O      -0.66; H       0.42; 
@             H       0.35; H       0.38; H       0.41; H       0.35; H       0.34; H       0.31; H       0.40; 
   4  Level shift: doubly occupied orbital energies shifted by -1.25D-02

 DIIS Fock eigenvalues in symmetry 1
      -20.68401      -20.66807      -20.66344      -20.64378      -15.72116
       -1.46846       -1.43363       -1.42982       -1.40062       -1.33764
       -0.82837       -0.82130       -0.81785       -0.81318       -0.79253
       -0.77625       -0.74940       -0.72193       -0.67603       -0.65877
       -0.65130       -0.63691       -0.61683       -0.61155       -0.58641
        0.01089        0.04202        0.06284        0.07729        0.13404
        0.14376        0.15046        0.16755        0.17634        0.19333
        0.21462        0.22507        0.23603        0.24869        0.26545
        0.27325        0.30314        0.31299        0.33369        0.35799
        0.47546        0.48858        0.51417        0.51792        0.52976
        0.54274        0.55168        0.57324        0.58562        0.59525
        0.61790        0.79609        0.84128        0.86980        0.88310
        0.90845        0.92861        0.94739        0.97293        0.98513
        1.01465        1.03247        1.05782        1.07904        1.09622
        1.10554        1.12016        1.14699        1.17785        1.25008
        1.33318        1.36067        1.37178        1.40358        1.42377
        1.44785        1.45374        1.45897        1.47659        1.48446
        1.54261        1.59066        1.62269        1.63435        1.65059
        1.68840        1.72515        1.75832        1.79837        1.82962
        1.85725        1.87437        1.89876        2.06562        2.09421
        2.12355        2.13915        2.14431        2.15162        2.21656
        2.24989        2.26646        2.28667        2.29395        2.32138
        2.33980        2.41813        2.55046        2.59728        2.61983
        2.68521        2.70677        2.72799        2.74400        2.74783
        2.75840        2.81692        2.83464        2.93405        2.94214
        2.96165        3.15806        3.23548        3.27452        3.34520
        3.38272        3.38774        3.40250        3.40583        3.41153
        3.41881        3.45713        3.48769        3.54841        3.55558
        3.57012        3.58679        3.88236        3.91087        3.92415
        4.03351        4.04735        4.10402        4.15215        4.17208
        4.97139        5.13064        5.16181        5.26803        5.30014
        5.31800        5.32320        5.67514        5.73559        5.75080
        5.77902        5.93789        5.97339        5.99364        6.07038
       36.94836       51.40862       51.42609       51.44129       51.45342
 Time used in FCKEIG, thr_jaco:   1.07D-01  2.80D-02  3.96D-06
 CPU and wall times used in FCKEIG, THR_FCKEIG:   1.07D-01  2.80D-02  9.53D-04
 -----------------------------------------------------------------------------

 *** DIIS iteration number    5
 RDSUPM called. NFMAT, ISYMDM(1:NFMAT)                     1
                     1

 ITDIIS, energy, error norm, change in energy, scr.thr., difden:
@ DIIS iter.   5    -361.197969105        3.13811D-02   -1.07D-03  -20    F

 (DIIS_RED) Control Parameters C2DIIS =         F NEVC =    5


 (DIIS_RED) B matrix:

               Column   1     Column   2     Column   3     Column   4     Column   5
       1      15.64459630
       2       0.83468084     1.30781000
       3       0.83430057    -0.00156228     0.14556537
       4       0.05724012     0.07822252     0.00574847     0.00908283
       5       0.02294065     0.00812775     0.00606594     0.00089536     0.00098478
    ==== End of matrix output ====

 DIIS C vector; C2DIIS = F, LAMBDA = -6.68D-04
    0.001512   -0.013327   -0.048136    0.116205    0.943746
* Read MO coefficients from SIRIUS.RST with label "NEWORB  " and header info: 20Dec18  DIIS   5
      Virial theorem: -V/T =      2.003133
@    MULPOP   N      -0.82; H       0.43; H       0.38; H       0.42; H       0.34; O      -0.71; O      -0.73; O      -0.65; O      -0.67; H       0.42; 
@             H       0.35; H       0.39; H       0.42; H       0.35; H       0.34; H       0.32; H       0.41; 

 DIIS Fock eigenvalues in symmetry 1
      -20.66712      -20.64826      -20.64267      -20.62181      -15.70488
       -1.45441       -1.41833       -1.41464       -1.38478       -1.32344
       -0.81444       -0.80729       -0.80361       -0.79950       -0.77818
       -0.76190       -0.73449       -0.70835       -0.66129       -0.64381
       -0.63618       -0.62203       -0.60082       -0.59568       -0.56986
        0.01131        0.04226        0.06313        0.07777        0.13433
        0.14420        0.15111        0.16791        0.17694        0.19373
        0.21498        0.22541        0.23638        0.24947        0.26589
        0.27375        0.30387        0.31418        0.33470        0.35896
        0.47612        0.48923        0.51485        0.51861        0.53053
        0.54349        0.55229        0.57395        0.58605        0.59592
        0.61850        0.79720        0.84257        0.87109        0.88450
        0.91006        0.93000        0.94965        0.97502        0.98662
        1.01611        1.03400        1.05907        1.08068        1.09763
        1.10701        1.12171        1.14848        1.17893        1.25149
        1.33417        1.36167        1.37327        1.40422        1.42451
        1.44875        1.45429        1.45995        1.47775        1.48510
        1.54361        1.59141        1.62343        1.63518        1.65139
        1.68916        1.72598        1.75887        1.79873        1.83053
        1.85759        1.87427        1.89983        2.06678        2.09531
        2.12453        2.14010        2.14480        2.15272        2.21760
        2.25084        2.26743        2.28765        2.29530        2.32188
        2.34099        2.41926        2.55076        2.59783        2.62024
        2.68558        2.70739        2.72830        2.74461        2.74822
        2.75848        2.81716        2.83559        2.93517        2.94359
        2.96312        3.15999        3.23718        3.27672        3.34779
        3.38480        3.38943        3.40433        3.40898        3.41437
        3.42150        3.46004        3.49068        3.55109        3.55828
        3.57340        3.58836        3.88419        3.91424        3.92661
        4.03629        4.05041        4.10697        4.15578        4.17382
        4.97370        5.13297        5.16433        5.27288        5.30318
        5.32239        5.32841        5.67911        5.73895        5.75535
        5.78343        5.94288        5.97728        5.99582        6.07462
       36.95206       51.41382       51.43266       51.45044       51.46153
 Time used in FCKEIG, thr_jaco:   1.07D-01  2.60D-02  1.30D-06
 CPU and wall times used in FCKEIG, THR_FCKEIG:   1.07D-01  2.60D-02  3.14D-04
 -----------------------------------------------------------------------------

 *** DIIS iteration number    6
 RDSUPM called. NFMAT, ISYMDM(1:NFMAT)                     1
                     1

 ITDIIS, energy, error norm, change in energy, scr.thr., difden:
@ DIIS iter.   6    -361.198064553        1.14219D-02   -9.54D-05  -20    F

 (DIIS_RED) Control Parameters C2DIIS =         F NEVC =    6


 (DIIS_RED) B matrix:

               Column   1     Column   2     Column   3     Column   4     Column   5     Column   6
       1      15.64459630
       2       0.83468084     1.30781000
       3       0.83430057    -0.00156228     0.14556537
       4       0.05724012     0.07822252     0.00574847     0.00908283
       5       0.02294065     0.00812775     0.00606594     0.00089536     0.00098478
       6      -0.00539922    -0.00005059     0.00078850     0.00062526     0.00001651     0.00013046
    ==== End of matrix output ====

 DIIS C vector; C2DIIS = F, LAMBDA = -3.60D-05
    0.000815    0.006924   -0.009754   -0.136830    0.127965    1.010881
* Read MO coefficients from SIRIUS.RST with label "NEWORB  " and header info: 20Dec18  DIIS   6
      Virial theorem: -V/T =      2.003400
@    MULPOP   N      -0.81; H       0.43; H       0.38; H       0.42; H       0.34; O      -0.71; O      -0.73; O      -0.65; O      -0.67; H       0.42; 
@             H       0.35; H       0.39; H       0.42; H       0.35; H       0.34; H       0.32; H       0.41; 

 DIIS Fock eigenvalues in symmetry 1
      -20.66829      -20.65030      -20.64523      -20.62475      -15.70693
       -1.45469       -1.41915       -1.41518       -1.38565       -1.32400
       -0.81506       -0.80782       -0.80455       -0.79997       -0.77880
       -0.76234       -0.73537       -0.70895       -0.66205       -0.64472
       -0.63716       -0.62217       -0.60123       -0.59605       -0.57044
        0.01131        0.04227        0.06308        0.07775        0.13420
        0.14412        0.15109        0.16786        0.17688        0.19365
        0.21483        0.22526        0.23620        0.24938        0.26572
        0.27354        0.30362        0.31396        0.33442        0.35870
        0.47592        0.48901        0.51459        0.51838        0.53031
        0.54327        0.55206        0.57380        0.58585        0.59562
        0.61832        0.79704        0.84228        0.87086        0.88413
        0.90982        0.92967        0.94934        0.97470        0.98633
        1.01563        1.03352        1.05880        1.08015        1.09708
        1.10654        1.12116        1.14812        1.17865        1.25114
        1.33391        1.36135        1.37285        1.40373        1.42415
        1.44834        1.45396        1.45952        1.47736        1.48468
        1.54325        1.59115        1.62309        1.63481        1.65108
        1.68874        1.72563        1.75852        1.79845        1.83032
        1.85725        1.87398        1.89957        2.06652        2.09514
        2.12408        2.13967        2.14438        2.15222        2.21709
        2.25028        2.26693        2.28720        2.29476        2.32151
        2.34061        2.41891        2.55046        2.59750        2.61984
        2.68507        2.70718        2.72790        2.74425        2.74791
        2.75819        2.81680        2.83538        2.93499        2.94312
        2.96262        3.15932        3.23677        3.27597        3.34713
        3.38413        3.38898        3.40379        3.40798        3.41356
        3.42063        3.45903        3.48974        3.55041        3.55739
        3.57236        3.58790        3.88367        3.91316        3.92592
        4.03525        4.04937        4.10620        4.15466        4.17333
        4.97272        5.13195        5.16330        5.27152        5.30245
        5.32131        5.32690        5.67785        5.73798        5.75401
        5.78210        5.94123        5.97614        5.99512        6.07314
       36.95004       51.41242       51.43081       51.44760       51.45902
 Time used in FCKEIG, thr_jaco:   1.31D-01  4.10D-02  4.74D-07
 CPU and wall times used in FCKEIG, THR_FCKEIG:   1.31D-01  4.10D-02  1.14D-04
 -----------------------------------------------------------------------------

 *** DIIS iteration number    7
 RDSUPM called. NFMAT, ISYMDM(1:NFMAT)                     1
                     1

 ITDIIS, energy, error norm, change in energy, scr.thr., difden:
@ DIIS iter.   7    -361.198077952        2.21662D-03   -1.34D-05  -20    F

 (DIIS_RED) Control Parameters C2DIIS =         F NEVC =    7


 (DIIS_RED) B matrix:

               Column   1     Column   2     Column   3     Column   4     Column   5     Column   6
       1      15.64459630
       2       0.83468084     1.30781000
       3       0.83430057    -0.00156228     0.14556537
       4       0.05724012     0.07822252     0.00574847     0.00908283
       5       0.02294065     0.00812775     0.00606594     0.00089536     0.00098478
       6      -0.00539922    -0.00005059     0.00078850     0.00062526     0.00001651     0.00013046
       7       0.00030365     0.00018749    -0.00001246     0.00000447     0.00004782    -0.00000060

               Column   7
       7       0.00000491
    ==== End of matrix output ====

 DIIS C vector; C2DIIS = F, LAMBDA = -1.22D-06
   -0.000242   -0.000646    0.005205    0.020348   -0.093867   -0.112578    1.181779
* Read MO coefficients from SIRIUS.RST with label "NEWORB  " and header info: 20Dec18  DIIS   7
      Virial theorem: -V/T =      2.003336
@    MULPOP   N      -0.81; H       0.43; H       0.38; H       0.42; H       0.34; O      -0.71; O      -0.73; O      -0.66; O      -0.67; H       0.43; 
@             H       0.35; H       0.39; H       0.42; H       0.35; H       0.34; H       0.32; H       0.41; 

 DIIS Fock eigenvalues in symmetry 1
      -20.66828      -20.65004      -20.64495      -20.62429      -15.70652
       -1.45465       -1.41901       -1.41504       -1.38545       -1.32380
       -0.81492       -0.80768       -0.80448       -0.79990       -0.77871
       -0.76219       -0.73524       -0.70900       -0.66201       -0.64464
       -0.63706       -0.62208       -0.60105       -0.59588       -0.57019
        0.01135        0.04230        0.06311        0.07780        0.13422
        0.14416        0.15115        0.16790        0.17694        0.19369
        0.21486        0.22528        0.23623        0.24944        0.26576
        0.27358        0.30368        0.31405        0.33452        0.35879
        0.47597        0.48907        0.51464        0.51843        0.53038
        0.54334        0.55210        0.57387        0.58589        0.59566
        0.61839        0.79715        0.84236        0.87098        0.88426
        0.90995        0.92979        0.94947        0.97483        0.98639
        1.01572        1.03362        1.05887        1.08026        1.09713
        1.10660        1.12124        1.14825        1.17872        1.25127
        1.33399        1.36141        1.37295        1.40375        1.42419
        1.44840        1.45399        1.45957        1.47743        1.48471
        1.54331        1.59122        1.62315        1.63489        1.65114
        1.68882        1.72571        1.75856        1.79848        1.83041
        1.85727        1.87398        1.89968        2.06664        2.09524
        2.12414        2.13972        2.14440        2.15230        2.21717
        2.25034        2.26699        2.28724        2.29484        2.32151
        2.34072        2.41904        2.55049        2.59754        2.61987
        2.68509        2.70724        2.72793        2.74430        2.74794
        2.75821        2.81681        2.83548        2.93512        2.94329
        2.96279        3.15950        3.23693        3.27616        3.34726
        3.38431        3.38902        3.40385        3.40816        3.41371
        3.42077        3.45918        3.48995        3.55054        3.55756
        3.57256        3.58795        3.88371        3.91335        3.92602
        4.03539        4.04953        4.10635        4.15488        4.17338
        4.97297        5.13221        5.16356        5.27172        5.30252
        5.32149        5.32718        5.67799        5.73809        5.75422
        5.78230        5.94149        5.97630        5.99514        6.07331
       36.95044       51.41250       51.43101       51.44803       51.45931
 Time used in FCKEIG, thr_jaco:   9.74D-02  2.60D-02  9.20D-08
 CPU and wall times used in FCKEIG, THR_FCKEIG:   9.75D-02  2.60D-02  2.22D-05
 -----------------------------------------------------------------------------

 *** DIIS iteration number    8
 RDSUPM called. NFMAT, ISYMDM(1:NFMAT)                     1
                     1

 ITDIIS, energy, error norm, change in energy, scr.thr., difden:
@ DIIS iter.   8    -361.198078443        3.75872D-04   -4.91D-07  -20    F

 (DIIS_RED) Control Parameters C2DIIS =         F NEVC =    8


 (DIIS_RED) B matrix:

               Column   1     Column   2     Column   3     Column   4     Column   5     Column   6
       1      15.64459630
       2       0.83468084     1.30781000
       3       0.83430057    -0.00156228     0.14556537
       4       0.05724012     0.07822252     0.00574847     0.00908283
       5       0.02294065     0.00812775     0.00606594     0.00089536     0.00098478
       6      -0.00539922    -0.00005059     0.00078850     0.00062526     0.00001651     0.00013046
       7       0.00030365     0.00018749    -0.00001246     0.00000447     0.00004782    -0.00000060
       8       0.00013048    -0.00004833     0.00001279     0.00000077     0.00000069     0.00000152

               Column   7     Column   8
       7       0.00000491
       8       0.00000032     0.00000014
    ==== End of matrix output ====

 DIIS C vector; C2DIIS = F, LAMBDA = -9.45D-08
   -0.000010   -0.000063   -0.000286    0.001439    0.006845   -0.019563   -0.123533    1.135173
* Read MO coefficients from SIRIUS.RST with label "NEWORB  " and header info: 20Dec18  DIIS   8
      Virial theorem: -V/T =      2.003352
@    MULPOP   N      -0.81; H       0.43; H       0.38; H       0.42; H       0.34; O      -0.71; O      -0.73; O      -0.66; O      -0.67; H       0.43; 
@             H       0.35; H       0.39; H       0.42; H       0.35; H       0.34; H       0.32; H       0.41; 

 DIIS Fock eigenvalues in symmetry 1
      -20.66817      -20.65004      -20.64491      -20.62439      -15.70655
       -1.45460       -1.41899       -1.41504       -1.38548       -1.32381
       -0.81492       -0.80768       -0.80446       -0.79988       -0.77870
       -0.76220       -0.73526       -0.70898       -0.66203       -0.64466
       -0.63709       -0.62204       -0.60104       -0.59587       -0.57021
        0.01135        0.04230        0.06311        0.07780        0.13422
        0.14416        0.15115        0.16790        0.17694        0.19368
        0.21486        0.22528        0.23623        0.24944        0.26576
        0.27358        0.30367        0.31405        0.33451        0.35878
        0.47597        0.48908        0.51464        0.51843        0.53038
        0.54334        0.55210        0.57387        0.58589        0.59565
        0.61839        0.79714        0.84236        0.87098        0.88426
        0.90995        0.92979        0.94947        0.97483        0.98641
        1.01572        1.03362        1.05888        1.08025        1.09713
        1.10659        1.12122        1.14824        1.17873        1.25126
        1.33399        1.36142        1.37295        1.40376        1.42419
        1.44840        1.45399        1.45957        1.47743        1.48470
        1.54331        1.59122        1.62315        1.63488        1.65114
        1.68881        1.72570        1.75856        1.79847        1.83041
        1.85726        1.87399        1.89967        2.06663        2.09524
        2.12414        2.13972        2.14441        2.15229        2.21717
        2.25034        2.26699        2.28723        2.29483        2.32153
        2.34071        2.41903        2.55049        2.59754        2.61986
        2.68509        2.70724        2.72793        2.74430        2.74794
        2.75821        2.81681        2.83547        2.93510        2.94328
        2.96278        3.15949        3.23691        3.27615        3.34726
        3.38430        3.38905        3.40388        3.40813        3.41370
        3.42077        3.45918        3.48992        3.55054        3.55756
        3.57253        3.58798        3.88374        3.91331        3.92603
        4.03540        4.04954        4.10635        4.15484        4.17342
        4.97295        5.13219        5.16354        5.27173        5.30257
        5.32149        5.32714        5.67802        5.73811        5.75420
        5.78228        5.94144        5.97630        5.99520        6.07332
       36.95041       51.41257       51.43104       51.44795       51.45933
 Time used in FCKEIG, thr_jaco:   1.02D-01  2.60D-02  1.56D-08
 CPU and wall times used in FCKEIG, THR_FCKEIG:   1.02D-01  2.60D-02  3.76D-06
 -----------------------------------------------------------------------------

 *** DIIS iteration number    9
 RDSUPM called. NFMAT, ISYMDM(1:NFMAT)                     1
                     1

 ITDIIS, energy, error norm, change in energy, scr.thr., difden:
@ DIIS iter.   9    -361.198078459        1.48403D-04   -1.65D-08  -20    F

 (DIIS_RED) Control Parameters C2DIIS =         F NEVC =    8


 (DIIS_RED) B matrix:

               Column   1     Column   2     Column   3     Column   4     Column   5     Column   6
       1       0.00000002
       2       0.00000074     1.30781000
       3      -0.00000119    -0.00156228     0.14556537
       4       0.00000019     0.07822252     0.00574847     0.00908283
       5       0.00000020     0.00812775     0.00606594     0.00089536     0.00098478
       6       0.00000004    -0.00005059     0.00078850     0.00062526     0.00001651     0.00013046
       7       0.00000010     0.00018749    -0.00001246     0.00000447     0.00004782    -0.00000060
       8       0.00000001    -0.00004833     0.00001279     0.00000077     0.00000069     0.00000152

               Column   7     Column   8
       7       0.00000491
       8       0.00000032     0.00000014
    ==== End of matrix output ====

 DIIS C vector; C2DIIS = F, LAMBDA = -1.14D-08
    0.821593    0.000023   -0.000256   -0.000646    0.006143    0.000178   -0.092916    0.265880
* Read MO coefficients from SIRIUS.RST with label "NEWORB  " and header info: 20Dec18  DIIS   9
      Virial theorem: -V/T =      2.003352
@    MULPOP   N      -0.81; H       0.43; H       0.38; H       0.42; H       0.34; O      -0.71; O      -0.73; O      -0.66; O      -0.67; H       0.43; 
@             H       0.35; H       0.39; H       0.42; H       0.35; H       0.34; H       0.32; H       0.41; 

 DIIS Fock eigenvalues in symmetry 1
      -20.66823      -20.65004      -20.64493      -20.62434      -15.70655
       -1.45462       -1.41900       -1.41504       -1.38546       -1.32381
       -0.81492       -0.80768       -0.80446       -0.79989       -0.77870
       -0.76220       -0.73524       -0.70900       -0.66204       -0.64466
       -0.63709       -0.62206       -0.60104       -0.59587       -0.57020
        0.01135        0.04230        0.06311        0.07780        0.13422
        0.14416        0.15115        0.16790        0.17694        0.19368
        0.21486        0.22528        0.23623        0.24944        0.26576
        0.27358        0.30368        0.31405        0.33451        0.35878
        0.47597        0.48908        0.51464        0.51843        0.53038
        0.54334        0.55210        0.57387        0.58589        0.59566
        0.61839        0.79714        0.84236        0.87097        0.88426
        0.90995        0.92978        0.94947        0.97483        0.98640
        1.01572        1.03363        1.05888        1.08026        1.09713
        1.10659        1.12123        1.14824        1.17873        1.25126
        1.33399        1.36141        1.37295        1.40376        1.42418
        1.44840        1.45399        1.45957        1.47743        1.48470
        1.54331        1.59122        1.62315        1.63488        1.65114
        1.68881        1.72570        1.75856        1.79847        1.83041
        1.85726        1.87399        1.89967        2.06663        2.09524
        2.12414        2.13972        2.14441        2.15229        2.21717
        2.25034        2.26699        2.28723        2.29483        2.32152
        2.34071        2.41903        2.55049        2.59754        2.61986
        2.68509        2.70724        2.72793        2.74430        2.74794
        2.75821        2.81681        2.83547        2.93510        2.94328
        2.96278        3.15949        3.23691        3.27615        3.34726
        3.38430        3.38904        3.40386        3.40814        3.41370
        3.42077        3.45918        3.48993        3.55054        3.55756
        3.57254        3.58797        3.88373        3.91333        3.92603
        4.03539        4.04953        4.10635        4.15486        4.17340
        4.97295        5.13219        5.16354        5.27173        5.30255
        5.32149        5.32716        5.67800        5.73810        5.75421
        5.78229        5.94147        5.97630        5.99517        6.07332
       36.95041       51.41253       51.43102       51.44799       51.45932
 Time used in FCKEIG, thr_jaco:   1.06D-01  2.70D-02  6.16D-09
 CPU and wall times used in FCKEIG, THR_FCKEIG:   1.06D-01  2.70D-02  1.48D-06
 -----------------------------------------------------------------------------

 *** DIIS iteration number   10
 RDSUPM called. NFMAT, ISYMDM(1:NFMAT)                     1
                     1

 ITDIIS, energy, error norm, change in energy, scr.thr., difden:
@ DIIS iter.  10    -361.198078461        4.14913D-05   -1.49D-09  -20    F

 (DIIS_RED) Control Parameters C2DIIS =         F NEVC =    8


 (DIIS_RED) B matrix:

               Column   1     Column   2     Column   3     Column   4     Column   5     Column   6
       1       0.00000002
       2      -0.00000000     0.00000000
       3      -0.00000119    -0.00000078     0.14556537
       4       0.00000019     0.00000001     0.00574847     0.00908283
       5       0.00000020     0.00000000     0.00606594     0.00089536     0.00098478
       6       0.00000004     0.00000000     0.00078850     0.00062526     0.00001651     0.00013046
       7       0.00000010     0.00000001    -0.00001246     0.00000447     0.00004782    -0.00000060
       8       0.00000001     0.00000001     0.00001279     0.00000077     0.00000069     0.00000152

               Column   7     Column   8
       7       0.00000491
       8       0.00000032     0.00000014
    ==== End of matrix output ====

 DIIS C vector; C2DIIS = F, LAMBDA = -4.15D-10
    0.016753    1.111375    0.000053   -0.000061   -0.000974    0.001841    0.015797   -0.144785
* Read MO coefficients from SIRIUS.RST with label "NEWORB  " and header info: 20Dec18  DIIS  10
      Virial theorem: -V/T =      2.003352
@    MULPOP   N      -0.81; H       0.43; H       0.38; H       0.42; H       0.34; O      -0.71; O      -0.73; O      -0.66; O      -0.67; H       0.43; 
@             H       0.35; H       0.39; H       0.42; H       0.35; H       0.34; H       0.32; H       0.41; 

 DIIS Fock eigenvalues in symmetry 1
      -20.66822      -20.65004      -20.64493      -20.62435      -15.70655
       -1.45462       -1.41900       -1.41504       -1.38547       -1.32381
       -0.81492       -0.80768       -0.80446       -0.79988       -0.77870
       -0.76220       -0.73524       -0.70900       -0.66204       -0.64466
       -0.63709       -0.62205       -0.60104       -0.59587       -0.57020
        0.01135        0.04230        0.06311        0.07780        0.13422
        0.14416        0.15115        0.16790        0.17694        0.19368
        0.21486        0.22528        0.23623        0.24944        0.26576
        0.27358        0.30368        0.31405        0.33451        0.35878
[...]
       3      -0.42650528     0.45287979     0.78293879
    ==== End of matrix output ====


 CCSD  Transition strength matrix for state nr. 13 of symmetry 1
 CCSD  excitation energy:15.15184388

 Gauge: length

               Column   1     Column   2     Column   3
       1     2.602211D-04  -1.063169D-04   5.690130D-05
       2    -1.063169D-04   4.343433D-05  -2.325093D-05
       3     5.690130D-05  -2.325093D-05   1.243899D-05
    ==== End of matrix output ====

 Principal values of diagonalized transition strength matrix:

             a.u.               
 1      -0.00000001
 2       0.00000000
 3       0.00031610

 Principal axis of diagonalized transition strength matrix:


               Column   1     Column   2     Column   3
       1       0.09844110     0.40876244     0.90731616
       2       0.64605503     0.66723165    -0.37069504
       3       0.75691627    -0.62266780     0.19840001
    ==== End of matrix output ====


 CCSD   oscillator strength matrix for state nr. 13 of symmetry 1
 CCSD  excitation energy:15.15184388


               Column   1     Column   2     Column   3
       1       0.00262855    -0.00107393     0.00057477
       2      -0.00107393     0.00043874    -0.00023486
       3       0.00057477    -0.00023486     0.00012565
    ==== End of matrix output ====

 Principal values of diagonalized oscillator strength matrix:

             a.u.               
 1      -0.00000006
 2       0.00000000
 3       0.00319300

 Principal axis of diagonalized oscillator strength matrix:


               Column   1     Column   2     Column   3
       1       0.09844110     0.40876244     0.90731616
       2       0.64605503     0.66723165    -0.37069504
       3       0.75691627    -0.62266780     0.19840001
    ==== End of matrix output ====


 CCSD  Transition strength matrix for state nr. 14 of symmetry 1
 CCSD  excitation energy:15.16235240

 Gauge: length

               Column   1     Column   2     Column   3
       1     4.321789D-05  -1.604529D-05   3.902392D-05
       2    -1.604529D-05   5.951351D-06  -1.448535D-05
       3     3.902392D-05  -1.448535D-05   3.523550D-05
    ==== End of matrix output ====

 Principal values of diagonalized transition strength matrix:

             a.u.               
 1      -0.00000001
 2       0.00000000
 3       0.00008441

 Principal axis of diagonalized transition strength matrix:


               Column   1     Column   2     Column   3
       1       0.44412362    -0.53920482     0.71555040
       2       0.88688197     0.37800394    -0.26561888
       3      -0.12725789     0.75257637     0.64609151
    ==== End of matrix output ====


 CCSD   oscillator strength matrix for state nr. 14 of symmetry 1
 CCSD  excitation energy:15.16235240


               Column   1     Column   2     Column   3
       1     4.368566D-04  -1.621895D-04   3.944629D-04
       2    -1.621895D-04   6.015766D-05  -1.464213D-04
       3     3.944629D-04  -1.464213D-04   3.561687D-04
    ==== End of matrix output ====

 Principal values of diagonalized oscillator strength matrix:

             a.u.               
 1      -0.00000005
 2       0.00000000
 3       0.00085324

 Principal axis of diagonalized oscillator strength matrix:


               Column   1     Column   2     Column   3
       1       0.44412362    -0.53920482     0.71555040
       2       0.88688197     0.37800394    -0.26561888
       3      -0.12725789     0.75257637     0.64609151
    ==== End of matrix output ====


 CCSD  Transition strength matrix for state nr. 15 of symmetry 1
 CCSD  excitation energy:15.17489255

 Gauge: length

               Column   1     Column   2     Column   3
       1     1.669091D-05   1.486548D-05  -1.799765D-05
       2     1.486548D-05   1.323901D-05  -1.603096D-05
       3    -1.799765D-05  -1.603096D-05   1.940271D-05
    ==== End of matrix output ====

 Principal values of diagonalized transition strength matrix:

             a.u.               
 1      -0.00000000
 2      -0.00000000
 3       0.00004934

 Principal axis of diagonalized transition strength matrix:


               Column   1     Column   2     Column   3
       1       0.23951739     0.77738031    -0.58164531
       2       0.62773080    -0.58101785    -0.51804662
       3       0.74066555     0.24103551     0.62714944
    ==== End of matrix output ====


 CCSD   oscillator strength matrix for state nr. 15 of symmetry 1
 CCSD  excitation energy:15.17489255


               Column   1     Column   2     Column   3
       1     1.688551D-04   1.503880D-04  -1.820749D-04
       2     1.503880D-04   1.339337D-04  -1.621788D-04
       3    -1.820749D-04  -1.621788D-04   1.962894D-04
    ==== End of matrix output ====

 Principal values of diagonalized oscillator strength matrix:

             a.u.               
 1      -0.00000004
 2       0.00000000
 3       0.00049912

 Principal axis of diagonalized oscillator strength matrix:


               Column   1     Column   2     Column   3
       1       0.23951739     0.77738031    -0.58164531
       2       0.62773080    -0.58101785    -0.51804662
       3       0.74066555     0.24103551     0.62714944
    ==== End of matrix output ====

  Total time for    135 linear response residues:      18.44 seconds.
  

 *******************************************************************************
 *******************************************************************************
 *                                                                             *
 *                                                                             *
 *                   SUMMARY OF COUPLED CLUSTER CALCULATION                    *
 *                                                                             *
 *                                                                             *
 *******************************************************************************
 *******************************************************************************

                                                                                
                                                                                
            Total SCF   energy:                  -361.1980784610                
            Total MP2   energy:                  -362.3094134179                
            Total CCSD  energy:                  -362.3491351431                
                                                                                
                                                                                
            Total SCF   energy:                  -361.1980784610                
            Total RSTAR energy:                  -362.3491351431                
            Total CCSD  energy:                  -362.3491808057                
                                                                                
                                                                                
            Total SCF   energy:                  -361.1980784610                
            Total RSTAR energy:                  -362.3491808057                
            Total CCSD  energy:                  -362.3491829008                
                                                                                
                                                                                
            Total SCF   energy:                  -361.1980784610                
            Total RSTAR energy:                  -362.3491829008                
            Total CCSD  energy:                  -362.3491830087                
                                                                                
                                                                                
            Total SCF   energy:                  -361.1980784610                
            Total RSTAR energy:                  -362.3491830087                
            Total CCSD  energy:                  -362.3491830145                
            CCSD Total  energy:                  -362.7674234418                
            CCSD E(PE-CC)     :                    -0.4135590174                
                                                                                
                                                                                
 +=============================================================================+
 |  sym. | Exci.  |        CCSD       Excitation energies            | ||T1||  |
 |(spin, |        +------------------------------------------------------------+
 | spat) |        |     Hartree    |       eV.      |     cm-1       |    %    |
 +=============================================================================+
 | ^1A   |    1   |    14.9080717  |     405.66927  |   3271943.511  |  88.54  |
 | ^1A   |    2   |    14.9563258  |     406.98233  |   3282534.055  |  88.84  |
 | ^1A   |    3   |    14.9772626  |     407.55205  |   3287129.163  |  88.52  |
 | ^1A   |    4   |    14.9995720  |     408.15912  |   3292025.510  |  88.74  |
 | ^1A   |    5   |    15.0068476  |     408.35710  |   3293622.321  |  88.28  |
 | ^1A   |    6   |    15.0199465  |     408.71353  |   3296497.190  |  88.19  |
 | ^1A   |    7   |    15.0276401  |     408.92289  |   3298185.737  |  88.30  |
 | ^1A   |    8   |    15.0604835  |     409.81660  |   3305394.043  |  88.43  |
 | ^1A   |    9   |    15.0879769  |     410.56474  |   3311428.141  |  88.40  |
 | ^1A   |   10   |    15.1064467  |     411.06733  |   3315481.792  |  88.75  |
 | ^1A   |   11   |    15.1127385  |     411.23853  |   3316862.676  |  88.23  |
 | ^1A   |   12   |    15.1247994  |     411.56673  |   3319509.747  |  88.47  |
 | ^1A   |   13   |    15.1518439  |     412.30265  |   3325445.319  |  88.04  |
 | ^1A   |   14   |    15.1623524  |     412.58860  |   3327751.672  |  88.00  |
 | ^1A   |   15   |    15.1748926  |     412.92983  |   3330503.918  |  87.86  |
 +=============================================================================+
                                                                                
                                                                                
     Total energies in Hartree:                                                 
             1 ^1A       -347.4457927237                                        
             2 ^1A       -347.3975386544                                        
             3 ^1A       -347.3766018014                                        
             4 ^1A       -347.3542923995                                        
             5 ^1A       -347.3470167970                                        
             6 ^1A       -347.3339179281                                        
             7 ^1A       -347.3262243438                                        
             8 ^1A       -347.2933808844                                        
             9 ^1A       -347.2658875109                                        
            10 ^1A       -347.2474177149                                        
            11 ^1A       -347.2411259436                                        
            12 ^1A       -347.2290650009                                        
            13 ^1A       -347.2020205476                                        
            14 ^1A       -347.1915120268                                        
            15 ^1A       -347.1789718729                                        
                                                                                
                                                                                
 +=============================================================================+
 |  sym. | Exci.  |        CCSD       Length   Gauge Oscillator Strength       |
 |(spin, |        +------------------------------------------------------------+
 | spat) |        | Dipole Strength(a.u.) | Oscillator strength  | Direction   |
 +=============================================================================+
 | ^1A   |    1   |        0.0002748      |      0.0027315       |  (Y,Z)      |
 | ^1A   |    2   |        0.0026671      |      0.0265937       |  (Y,Z)      |
 | ^1A   |    3   |        0.0016953      |      0.0169271       |  (Y,Z)      |
 | ^1A   |    4   |        0.0020241      |      0.0202403       |  (Y,Z)      |
 | ^1A   |    5   |        0.0005343      |      0.0053455       |  (Y,Z)      |
 | ^1A   |    6   |        0.0004909      |      0.0049156       |  (Y,Z)      |
 | ^1A   |    7   |        0.0011434      |      0.0114552       |  (Y,Z)      |
 | ^1A   |    8   |        0.0004174      |      0.0041907       |  (Y,Z)      |
 | ^1A   |    9   |        0.0011455      |      0.0115218       |  (Y,Z)      |
 | ^1A   |   10   |        0.0025358      |      0.0255381       |  (Y,Z)      |
 | ^1A   |   11   |        0.0005050      |      0.0050877       |  (Y,Z)      |
 | ^1A   |   12   |        0.0014330      |      0.0144497       |  (Y,Z)      |
 | ^1A   |   13   |        0.0003161      |      0.0031929       |  (Y,Z)      |
 | ^1A   |   14   |        0.0000844      |      0.0008532       |  (Y,Z)      |
 | ^1A   |   15   |        0.0000493      |      0.0004991       |  (Y,Z)      |
 +=============================================================================+

  1 a.u. =        27.21138 eV.  
  1 a.u. =    219474.62934 cm-1.
  

 *******************************************************************************
 *******************************************************************************
 *                                                                             *
 *                                                                             *
 *                      END OF COUPLED CLUSTER CALCULATION                     *
 *                                                                             *
 *                                                                             *
 *******************************************************************************
 *******************************************************************************


 CPU and wall time for CC :  248674.083   91338.365

 
     Date and time (Linux)  : Fri Dec 21 07:12:31 2018
     Host name              : s71p32.deic.sdu.dk                      


                      .-------------------------------------.
                      | End of Coupled Cluster Section (CC) |
                      `-------------------------------------'

  Total CPU  time used in DALTON:  69 hours  9 minutes 10 seconds
  Total wall time used in DALTON:  25 hours 24 minutes 52 seconds

 
     Date and time (Linux)  : Fri Dec 21 07:12:31 2018
     Host name              : s71p32.deic.sdu.dk                      
  

 +---------------------------------------------------------+ 
 | List of selected calculated molecular properties (a.u.) | 
 +---------------------------------------------------------+ 

  Properties are read from unit number                      4

 CCSD       properties :
 #  1 1 PE-CCSD  Ground state Energy =    -362.7674234418
 #  2 1 E(PE-CC) Ground state Energy =      -0.4135590174
 #  3 1 Sy: 1 Sp: 1 Exc:  1 E_tot:   -347.4457927237 w:     14.9080717007 E_grs:   -362.3538644244
 #  4 1 Exctot   Excited state Energy =    -347.4457927237
 #  5 1 Sy: 1 Sp: 1 Exc:  2 E_tot:   -347.3975386544 w:     14.9563257699 E_grs:   -362.3538644244
 #  6 1 Exctot   Excited state Energy =    -347.3975386544
 #  7 1 Sy: 1 Sp: 1 Exc:  3 E_tot:   -347.3766018014 w:     14.9772626230 E_grs:   -362.3538644244
 #  8 1 Exctot   Excited state Energy =    -347.3766018014
 #  9 1 Sy: 1 Sp: 1 Exc:  4 E_tot:   -347.3542923995 w:     14.9995720249 E_grs:   -362.3538644244
 # 10 1 Exctot   Excited state Energy =    -347.3542923995
 # 11 1 Sy: 1 Sp: 1 Exc:  5 E_tot:   -347.3470167970 w:     15.0068476274 E_grs:   -362.3538644244
 # 12 1 Exctot   Excited state Energy =    -347.3470167970
 # 13 1 Sy: 1 Sp: 1 Exc:  6 E_tot:   -347.3339179281 w:     15.0199464963 E_grs:   -362.3538644244
 # 14 1 Exctot   Excited state Energy =    -347.3339179281
 # 15 1 Sy: 1 Sp: 1 Exc:  7 E_tot:   -347.3262243438 w:     15.0276400805 E_grs:   -362.3538644244
 # 16 1 Exctot   Excited state Energy =    -347.3262243438
 # 17 1 Sy: 1 Sp: 1 Exc:  8 E_tot:   -347.2933808844 w:     15.0604835400 E_grs:   -362.3538644244
 # 18 1 Exctot   Excited state Energy =    -347.2933808844
 # 19 1 Sy: 1 Sp: 1 Exc:  9 E_tot:   -347.2658875109 w:     15.0879769135 E_grs:   -362.3538644244
 # 20 1 Exctot   Excited state Energy =    -347.2658875109
 # 21 1 Sy: 1 Sp: 1 Exc: 10 E_tot:   -347.2474177149 w:     15.1064467095 E_grs:   -362.3538644244
 # 22 1 Exctot   Excited state Energy =    -347.2474177149
 # 23 1 Sy: 1 Sp: 1 Exc: 11 E_tot:   -347.2411259436 w:     15.1127384807 E_grs:   -362.3538644244
 # 24 1 Exctot   Excited state Energy =    -347.2411259436
 # 25 1 Sy: 1 Sp: 1 Exc: 12 E_tot:   -347.2290650009 w:     15.1247994235 E_grs:   -362.3538644244
 # 26 1 Exctot   Excited state Energy =    -347.2290650009
 # 27 1 Sy: 1 Sp: 1 Exc: 13 E_tot:   -347.2020205476 w:     15.1518438767 E_grs:   -362.3538644244
 # 28 1 Exctot   Excited state Energy =    -347.2020205476
 # 29 1 Sy: 1 Sp: 1 Exc: 14 E_tot:   -347.1915120268 w:     15.1623523976 E_grs:   -362.3538644244
 # 30 1 Exctot   Excited state Energy =    -347.1915120268
 # 31 1 Sy: 1 Sp: 1 Exc: 15 E_tot:   -347.1789718729 w:     15.1748925515 E_grs:   -362.3538644244
 # 32 1 Exctot   Excited state Energy =    -347.1789718729
 # 33 1 |<O|XDIPLEN |i(14.908072)>| =     0.00515702
 # 35 1 |<O|XDIPLEN |i(14.956326)>| =     0.00247233
 # 37 1 |<O|XDIPLEN |i(14.977263)>| =     0.03580273
 # 39 1 |<O|XDIPLEN |i(14.999572)>| =     0.02771167
 # 41 1 |<O|XDIPLEN |i(15.006848)>| =     0.01781730
 # 43 1 |<O|XDIPLEN |i(15.019946)>| =     0.02076013
 # 45 1 |<O|XDIPLEN |i(15.027640)>| =     0.00651943
 # 47 1 |<O|XDIPLEN |i(15.060484)>| =     0.00964569
 # 49 1 |<O|XDIPLEN |i(15.087977)>| =     0.00086534
 # 51 1 |<O|XDIPLEN |i(15.106447)>| =     0.04044993
 # 53 1 |<O|XDIPLEN |i(15.112738)>| =     0.01390241
 # 55 1 |<O|XDIPLEN |i(15.124799)>| =     0.00841377
 # 57 1 |<O|XDIPLEN |i(15.151844)>| =     0.01613137
 # 59 1 |<O|XDIPLEN |i(15.162352)>| =     0.00657403
 # 61 1 |<O|XDIPLEN |i(15.174893)>| =     0.00408545
 # 63 1 |<O|YDIPLEN |i(14.908072)>| =     0.00075685
 # 65 1 |<O|YDIPLEN |i(14.956326)>| =     0.03207658
 # 67 1 |<O|YDIPLEN |i(14.977263)>| =     0.00311212
 # 69 1 |<O|YDIPLEN |i(14.999572)>| =     0.02926072
 # 71 1 |<O|YDIPLEN |i(15.006848)>| =     0.01169201
 # 73 1 |<O|YDIPLEN |i(15.019946)>| =     0.00759157
 # 75 1 |<O|YDIPLEN |i(15.027640)>| =     0.02783441
 # 77 1 |<O|YDIPLEN |i(15.060484)>| =     0.01761836
 # 79 1 |<O|YDIPLEN |i(15.087977)>| =     0.01695271
 # 81 1 |<O|YDIPLEN |i(15.106447)>| =     0.02933018
 # 83 1 |<O|YDIPLEN |i(15.112738)>| =     0.01635430
 # 85 1 |<O|YDIPLEN |i(15.124799)>| =     0.02199550
 # 87 1 |<O|YDIPLEN |i(15.151844)>| =     0.00659047
 # 89 1 |<O|YDIPLEN |i(15.162352)>| =     0.00243954
 # 91 1 |<O|YDIPLEN |i(15.174893)>| =     0.00363854
 # 93 1 |<O|ZDIPLEN |i(14.908072)>| =     0.01573754
 # 95 1 |<O|ZDIPLEN |i(14.956326)>| =     0.04039945
 # 97 1 |<O|ZDIPLEN |i(14.977263)>| =     0.02009384
 # 99 1 |<O|ZDIPLEN |i(14.999572)>| =     0.01999909
 #101 1 |<O|ZDIPLEN |i(15.006848)>| =     0.00895253
 #103 1 |<O|ZDIPLEN |i(15.019946)>| =     0.00151468
 #105 1 |<O|ZDIPLEN |i(15.027640)>| =     0.01805980
 #107 1 |<O|ZDIPLEN |i(15.060484)>| =     0.00373367
 #109 1 |<O|ZDIPLEN |i(15.087977)>| =     0.02928000
 #111 1 |<O|ZDIPLEN |i(15.106447)>| =     0.00627356
 #113 1 |<O|ZDIPLEN |i(15.112738)>| =     0.00665111
 #115 1 |<O|ZDIPLEN |i(15.124799)>| =     0.02963871
 #117 1 |<O|ZDIPLEN |i(15.151844)>| =     0.00352690
 #119 1 |<O|ZDIPLEN |i(15.162352)>| =     0.00593595
 #121 1 |<O|ZDIPLEN |i(15.174893)>| =     0.00440485

 THE_END   
