

     ************************************************************************
     *************** Dalton - An Electronic Structure Program ***************
     ************************************************************************

    This is output from DALTON release Dalton2017.alpha (2016)
         ( Web site: http://daltonprogram.org )

   ----------------------------------------------------------------------------

    NOTE:
     
    Dalton is an experimental code for the evaluation of molecular
    properties using (MC)SCF, DFT, CI, and CC wave functions.
    The authors accept no responsibility for the performance of
    the code or for the correctness of the results.
     
    The code (in whole or part) is provided under a licence and
    is not to be reproduced for further distribution without
    the written permission of the authors or their representatives.
     
    See the home page "http://daltonprogram.org" for further information.
     
    If results obtained with this code are published,
    the appropriate citations would be both of:
     
       K. Aidas, C. Angeli, K. L. Bak, V. Bakken, R. Bast,
       L. Boman, O. Christiansen, R. Cimiraglia, S. Coriani,
       P. Dahle, E. K. Dalskov, U. Ekstroem,
       T. Enevoldsen, J. J. Eriksen, P. Ettenhuber, B. Fernandez,
       L. Ferrighi, H. Fliegl, L. Frediani, K. Hald, A. Halkier,
       C. Haettig, H. Heiberg, T. Helgaker, A. C. Hennum,
       H. Hettema, E. Hjertenaes, S. Hoest, I.-M. Hoeyvik,
       M. F. Iozzi, B. Jansik, H. J. Aa. Jensen, D. Jonsson,
       P. Joergensen, J. Kauczor, S. Kirpekar,
       T. Kjaergaard, W. Klopper, S. Knecht, R. Kobayashi, H. Koch,
       J. Kongsted, A. Krapp, K. Kristensen, A. Ligabue,
       O. B. Lutnaes, J. I. Melo, K. V. Mikkelsen, R. H. Myhre,
       C. Neiss, C. B. Nielsen, P. Norman, J. Olsen,
       J. M. H. Olsen, A. Osted, M. J. Packer, F. Pawlowski,
       T. B. Pedersen, P. F. Provasi, S. Reine, Z. Rinkevicius,
       T. A. Ruden, K. Ruud, V. Rybkin, P. Salek, C. C. M. Samson,
       A. Sanchez de Meras, T. Saue, S. P. A. Sauer,
       B. Schimmelpfennig, K. Sneskov, A. H. Steindal,
       K. O. Sylvester-Hvid, P. R. Taylor, A. M. Teale,
       E. I. Tellgren, D. P. Tew, A. J. Thorvaldsen, L. Thoegersen,
       O. Vahtras, M. A. Watson, D. J. D. Wilson, M. Ziolkowski
       and H. Agren,
       "The Dalton quantum chemistry program system",
       WIREs Comput. Mol. Sci. 2014, 4:269–284 (doi: 10.1002/wcms.1172)
     
    and
     
       Dalton, a Molecular Electronic Structure Program,
       Release Dalton2017.alpha (2016), see http://daltonprogram.org
   ----------------------------------------------------------------------------

    Authors in alphabetical order (major contribution(s) in parenthesis):

  Kestutis Aidas,           Vilnius University,           Lithuania   (QM/MM)
  Celestino Angeli,         University of Ferrara,        Italy       (NEVPT2)
  Keld L. Bak,              UNI-C,                        Denmark     (AOSOPPA, non-adiabatic coupling, magnetic properties)
  Vebjoern Bakken,          University of Oslo,           Norway      (DALTON; geometry optimizer, symmetry detection)
  Radovan Bast,             UiT The Arctic U. of Norway,  Norway      (DALTON installation and execution frameworks)
  Pablo Baudin,             University of Valencia,       Spain       (Cholesky excitation energies)
  Linus Boman,              NTNU,                         Norway      (Cholesky decomposition and subsystems)
  Ove Christiansen,         Aarhus University,            Denmark     (CC module)
  Renzo Cimiraglia,         University of Ferrara,        Italy       (NEVPT2)
  Sonia Coriani,            University of Trieste,        Italy       (CC module, MCD in RESPONS)
  Janusz Cukras,            University of Trieste,        Italy       (MChD in RESPONS)
  Paal Dahle,               University of Oslo,           Norway      (Parallelization)
  Erik K. Dalskov,          UNI-C,                        Denmark     (SOPPA)
  Thomas Enevoldsen,        Univ. of Southern Denmark,    Denmark     (SOPPA)
  Janus J. Eriksen,         Aarhus University,            Denmark     (Polarizable embedding model, TDA)
  Rasmus Faber,             University of Copenhagen,     Denmark     (Vib.avg. NMR with SOPPA, parallel AO-SOPPA)
  Berta Fernandez,          U. of Santiago de Compostela, Spain       (doublet spin, ESR in RESPONS)
  Lara Ferrighi,            Aarhus University,            Denmark     (PCM Cubic response)
  Heike Fliegl,             University of Oslo,           Norway      (CCSD(R12))
  Luca Frediani,            UiT The Arctic U. of Norway,  Norway      (PCM)
  Bin Gao,                  UiT The Arctic U. of Norway,  Norway      (Gen1Int library)
  Christof Haettig,         Ruhr-University Bochum,       Germany     (CC module)
  Kasper Hald,              Aarhus University,            Denmark     (CC module)
  Asger Halkier,            Aarhus University,            Denmark     (CC module)
  Frederik Beyer Hansen,    University of Copenhagen,     Denmark     (Parallel AO-SOPPA)
  Erik D. Hedegaard,        Univ. of Southern Denmark,    Denmark     (Polarizable embedding model, QM/MM)
  Hanne Heiberg,            University of Oslo,           Norway      (geometry analysis, selected one-electron integrals)
  Trygve Helgaker,          University of Oslo,           Norway      (DALTON; ABACUS, ERI, DFT modules, London, and much more)
  Alf Christian Hennum,     University of Oslo,           Norway      (Parity violation)
  Hinne Hettema,            University of Auckland,       New Zealand (quadratic response in RESPONS; SIRIUS supersymmetry)
  Eirik Hjertenaes,         NTNU,                         Norway      (Cholesky decomposition)
  Pi A. B. Haase,           University of Copenhagen,     Denmark     (Triplet AO-SOPPA)
  Maria Francesca Iozzi,    University of Oslo,           Norway      (RPA)
  Brano Jansik              Technical Univ. of Ostrava    Czech Rep.  (DFT cubic response)
  Hans Joergen Aa. Jensen,  Univ. of Southern Denmark,    Denmark     (DALTON; SIRIUS, RESPONS, ABACUS modules, London, and much more)
  Dan Jonsson,              UiT The Arctic U. of Norway,  Norway      (cubic response in RESPONS module)
  Poul Joergensen,          Aarhus University,            Denmark     (RESPONS, ABACUS, and CC modules)
  Maciej Kaminski,          University of Warsaw,         Poland      (CPPh in RESPONS)
  Joanna Kauczor,           Linkoeping University,        Sweden      (Complex polarization propagator (CPP) module)
  Sheela Kirpekar,          Univ. of Southern Denmark,    Denmark     (Mass-velocity & Darwin integrals)
  Wim Klopper,              KIT Karlsruhe,                Germany     (R12 code in CC, SIRIUS, and ABACUS modules)
  Stefan Knecht,            ETH Zurich,                   Switzerland (Parallel CI and MCSCF)
  Rika Kobayashi,           Australian National Univ.,    Australia   (DIIS in CC, London in MCSCF)
  Henrik Koch,              NTNU,                         Norway      (CC module, Cholesky decomposition)
  Jacob Kongsted,           Univ. of Southern Denmark,    Denmark     (Polarizable embedding model, QM/MM)
  Andrea Ligabue,           University of Modena,         Italy       (CTOCD, AOSOPPA)
  Nanna H. List             Univ. of Southern Denmark,    Denmark     (Polarizable embedding model)
  Ola B. Lutnaes,           University of Oslo,           Norway      (DFT Hessian)
  Juan I. Melo,             University of Buenos Aires,   Argentina   (LRESC, Relativistic Effects on NMR Shieldings)
  Kurt V. Mikkelsen,        University of Copenhagen,     Denmark     (MC-SCRF and QM/MM)
  Rolf H. Myhre,            NTNU,                         Norway      (Cholesky, subsystems and ECC2)
  Christian Neiss,          Univ. Erlangen-Nuernberg,     Germany     (CCSD(R12))
  Christian B. Nielsen,     University of Copenhagen,     Denmark     (QM/MM)
  Patrick Norman,           Linkoeping University,        Sweden      (Cubic response and complex frequency response in RESPONS)
  Jeppe Olsen,              Aarhus University,            Denmark     (SIRIUS CI/density modules)
  Jogvan Magnus H. Olsen,   Univ. of Southern Denmark,    Denmark     (Polarizable embedding model, QM/MM)
  Anders Osted,             Copenhagen University,        Denmark     (QM/MM)
  Martin J. Packer,         University of Sheffield,      UK          (SOPPA)
  Filip Pawlowski,          Kazimierz Wielki University,  Poland      (CC3)
  Morten N. Pedersen,       Univ. of Southern Denmark,    Denmark     (Polarizable embedding model)
  Thomas B. Pedersen,       University of Oslo,           Norway      (Cholesky decomposition)
  Patricio F. Provasi,      University of Northeastern,   Argentina   (Analysis of coupling constants in localized orbitals)
  Zilvinas Rinkevicius,     KTH Stockholm,                Sweden      (open-shell DFT, ESR)
  Elias Rudberg,            KTH Stockholm,                Sweden      (DFT grid and basis info)
  Torgeir A. Ruden,         University of Oslo,           Norway      (Numerical derivatives in ABACUS)
  Kenneth Ruud,             UiT The Arctic U. of Norway,  Norway      (DALTON; ABACUS magnetic properties and much more)
  Pawel Salek,              KTH Stockholm,                Sweden      (DALTON; DFT code)
  Claire C. M. Samson       University of Karlsruhe       Germany     (Boys localization, r12 integrals in ERI)
  Alfredo Sanchez de Meras, University of Valencia,       Spain       (CC module, Cholesky decomposition)
  Trond Saue,               Paul Sabatier University,     France      (direct Fock matrix construction)
  Stephan P. A. Sauer,      University of Copenhagen,     Denmark     (SOPPA(CCSD), SOPPA prop., AOSOPPA, vibrational g-factors)
  Bernd Schimmelpfennig,    Forschungszentrum Karlsruhe,  Germany     (AMFI module)
  Kristian Sneskov,         Aarhus University,            Denmark     (Polarizable embedding model, QM/MM)
  Arnfinn H. Steindal,      UiT The Arctic U. of Norway,  Norway      (parallel QM/MM, Polarizable embedding model)
  Casper Steinmann,         Univ. of Southern Denmark,    Denmark     (QFIT, Polarizable embedding model)
  K. O. Sylvester-Hvid,     University of Copenhagen,     Denmark     (MC-SCRF)
  Peter R. Taylor,          VLSCI/Univ. of Melbourne,     Australia   (Symmetry handling ABACUS, integral transformation)
  Andrew M. Teale,          University of Nottingham,     England     (DFT-AC, DFT-D)
  David P. Tew,             University of Bristol,        England     (CCSD(R12))
  Olav Vahtras,             KTH Stockholm,                Sweden      (triplet response, spin-orbit, ESR, TDDFT, open-shell DFT)
  David J. Wilson,          La Trobe University,          Australia   (DFT Hessian and DFT magnetizabilities)
  Hans Agren,               KTH Stockholm,                Sweden      (SIRIUS module, RESPONS, MC-SCRF solvation model)
 --------------------------------------------------------------------------------

     Date and time (Linux)  : Thu Dec 20 05:47:38 2018
     Host name              : s71p32.deic.sdu.dk                      

 * Work memory size             :  2048000000 = 15.259 gigabytes.

 * Directories for basis set searches:
   1) /work/sdujk/reinholdt/ECP-Sonia/mixed-basis
   2) /gpfs/gss1/work/sdujk/reinholdt/Programs/dalton-private/pe-cvs/basis


Compilation information
-----------------------

 Who compiled             | reinholdt
 Host                     | fe1.deic.sdu.dk
 System                   | Linux-3.10.0-327.36.3.el7.x86_64
 CMake generator          | Unix Makefiles
 Processor                | x86_64
 64-bit integers          | ON
 MPI                      | OFF
 Fortran compiler         | /opt/sys/apps/intel/2018.05/compilers_and_librarie
                          | s_2018.3.222/linux/bin/intel64/ifort
 Fortran compiler version | ifort (IFORT) 18.0.3 20180410
 C compiler               | /opt/sys/apps/intel/2018.05/compilers_and_librarie
                          | s_2018.3.222/linux/bin/intel64/icc
 C compiler version       | icc (ICC) 18.0.3 20180410
 C++ compiler             | /opt/sys/apps/intel/2018.05/compilers_and_librarie
                          | s_2018.3.222/linux/bin/intel64/icpc
 C++ compiler version     | icpc (ICC) 18.0.3 20180410
 Static linking           | OFF
 Last Git revision        | 252a54078a0f9a1f0a59b3262fa4a57829155fe9
 Git branch               | pe/cc-cvs
 Configuration time       | 2018-12-09 12:09:40.474621


   Content of the .dal input file
 ----------------------------------

**DALTON
.RUN WAVE FUNCTIONS
.PEQM
**INTEGRALS
.DIPLEN
**WAVE FUNCTIONS
.CC
*PRINT
!To check the origin of excit
.PRINTL
   0 11
*SCF INP
.THRESH
1.0D-7
*CC INP
.CCSD
.THRLEQ
 1.0D-9
.THRENR
 1.0D-10
.FROIMP
4
0
.PRINT
 1
.MAX IT
 1200
.MAXRED
 1200
.MXLRV
1199
*PECC
*CCEXCI
.NCCEXC
 15
.CVSEPARA
1
1
*CCLRSD
.DIPOLE
**END OF DALTON INPUT


   Content of the .mol file
 ----------------------------

ATOMBASIS


Atomtypes=4 Charge=1 Nosymm Angstrom
   7.00000    1    Basis=6-311++G**
N          0.000000        0.000000        0.000000
   1.00000    4    Basis=6-311++G**
H         -0.112056        0.826728       -0.621615
H          0.861780       -0.386913       -0.433710
H         -0.830681       -0.681981        0.014581
H          0.326220        0.231556        0.925057
   8.00000    4    Basis=6-311G**
O          0.232816        2.105672       -1.793888
O         -2.413538       -1.137317       -0.152441
O          2.309668       -0.154431        1.652299
O          2.255505       -1.317352       -1.498130
   1.00000    8    Basis=6-311G**
H         -0.261784        2.028034       -2.700384
H          1.198413        2.216169       -2.069678
H         -2.512175       -2.113269       -0.337352
H         -3.091959       -0.666527        0.410825
H          2.707529        0.669763        1.328129
H          2.328645        0.007792        2.619872
H          2.387514       -2.270762       -1.217689
H          3.119135       -0.823974       -1.305614


       *******************************************************************
       *********** Output from DALTON general input processing ***********
       *******************************************************************

 --------------------------------------------------------------------------------
   Overall default print level:    0
   Print level for DALTON.STAT:    1

    HERMIT 1- and 2-electron integral sections will be executed
    "Old" integral transformation used (limited to max 255 basis functions)
    Wave function sections will be executed (SIRIUS module)
    Environment is modeled using polarizable embedding scheme (PE library)
 --------------------------------------------------------------------------------


   ****************************************************************************
   *************** Output of molecule and basis set information ***************
   ****************************************************************************


    The two title cards from your ".mol" input:
    ------------------------------------------------------------------------
 1:                                                                         
 2:                                                                         
    ------------------------------------------------------------------------

  Coordinates are entered in Angstrom and converted to atomic units.
          - Conversion factor : 1 bohr = 0.52917721 A

  Atomic type no.    1
  --------------------
  Nuclear charge:   7.00000
  Number of symmetry independent centers:    1
  Number of basis sets to read;    2
  The basis set is "6-311++G**" from the basis set library.
  Basis set file used for this atomic type with Z =   7 :
     "/gpfs/gss1/work/sdujk/reinholdt/Programs/dalton-private/pe-cvs/basis/6-311++G**"

  Info about the basis set file: your basis has no documentation.
  Basis set: 6-311++G**                                                                      

  Atomic type no.    2
  --------------------
  Nuclear charge:   1.00000
  Number of symmetry independent centers:    4
  Number of basis sets to read;    2
  The basis set is "6-311++G**" from the basis set library.
  Basis set file used for this atomic type with Z =   1 :
     "/gpfs/gss1/work/sdujk/reinholdt/Programs/dalton-private/pe-cvs/basis/6-311++G**"

  Info about the basis set file: your basis has no documentation.
  Basis set: 6-311++G**                                                                      

  Atomic type no.    3
  --------------------
  Nuclear charge:   8.00000
  Number of symmetry independent centers:    4
  Number of basis sets to read;    2
  The basis set is "6-311G**" from the basis set library.
  Basis set file used for this atomic type with Z =   8 :
     "/gpfs/gss1/work/sdujk/reinholdt/Programs/dalton-private/pe-cvs/basis/6-311G**"

  Info about the basis set file: your basis has no documentation.
  Basis set: 6-311G**                                                                        

  Atomic type no.    4
  --------------------
  Nuclear charge:   1.00000
  Number of symmetry independent centers:    8
  Number of basis sets to read;    2
  The basis set is "6-311G**" from the basis set library.
  Basis set file used for this atomic type with Z =   1 :
     "/gpfs/gss1/work/sdujk/reinholdt/Programs/dalton-private/pe-cvs/basis/6-311G**"

  Info about the basis set file: your basis has no documentation.
  Basis set: 6-311G**                                                                        


                         SYMGRP: Point group information
                         -------------------------------

@    Point group: C1 


                                 Isotopic Masses
                                 ---------------

                           N          14.003074
                           H           1.007825
                           H           1.007825
                           H           1.007825
                           H           1.007825
                           O          15.994915
                           O          15.994915
                           O          15.994915
                           O          15.994915
                           H           1.007825
                           H           1.007825
                           H           1.007825
                           H           1.007825
                           H           1.007825
                           H           1.007825
                           H           1.007825
                           H           1.007825

                       Total mass:    90.076634 amu
                       Natural abundance:  98.500 %

 Center-of-mass coordinates (a.u.):    0.929533   -0.189299   -0.673000


  Atoms and basis sets
  --------------------

  Number of atom types :    4
  Total number of atoms:   17

  label    atoms   charge   prim   cont     basis
  ----------------------------------------------------------------------
  N           1    7.0000    35    22      [12s6p1d|5s4p1d]                                   
  H           4    1.0000     9     7      [6s1p|4s1p]                                        
  O           4    8.0000    31    18      [11s5p1d|4s3p1d]                                   
  H           8    1.0000     8     6      [5s1p|3s1p]                                        
  ----------------------------------------------------------------------
  total:     17   51.0000   259   170
  ----------------------------------------------------------------------
  Spherical harmonic basis used.

  Threshold for neglecting AO integrals:  1.00D-12


  Cartesian Coordinates (a.u.)
  ----------------------------

  Total number of coordinates:   51
  N       :     1  x   0.0000000000    2  y   0.0000000000    3  z   0.0000000000
  H       :     4  x  -0.2117551507    5  y   1.5622894999    6  z  -1.1746821052
  H       :     7  x   1.6285281800    8  y  -0.7311596042    9  z  -0.8195931177
  H       :    10  x  -1.5697595872   11  y  -1.2887573124   12  z   0.0275540966
  H       :    13  x   0.6164664565   14  y   0.4375774226   15  z   1.7481043800
  O       :    16  x   0.4399584775   17  y   3.9791433891   18  z  -3.3899570189
  O       :    19  x  -4.5609258123   20  y  -2.1492176473   21  z  -0.2880717402
  O       :    22  x   4.3646399597   23  y  -0.2918322952   24  z   3.1223925866
  O       :    25  x   4.2622867236   26  y  -2.4894344902   27  z  -2.8310553996
  H       :    28  x  -0.4947000639   29  y   3.8324288322   30  z  -5.1029861923
  H       :    31  x   2.2646723546   32  y   4.1879524567   33  z  -3.9111245869
  H       :    34  x  -4.7473227281   35  y  -3.9934996384   36  z  -0.6375028877
  H       :    37  x  -5.8429556997   38  y  -1.2595534849   39  z   0.7763467353
  H       :    40  x   5.1164882855   41  y   1.2656686387   42  z   2.5098000687
  H       :    43  x   4.4005012923   44  y   0.0147247460   45  z   4.9508405625
  H       :    46  x   4.5117475796   47  y  -4.2911182750   48  z  -2.3010987154
  H       :    49  x   5.8943108969   50  y  -1.5570851941   51  z  -2.4672528850

  Max    interatomic separation is    6.4458 Angstrom (   12.1808 Bohr)
  between atoms   17 and   13, "H     " and "H     ".

  Min HX interatomic separation is    0.9709 Angstrom (    1.8348 Bohr)

  Min YX interatomic separation is    2.6724 Angstrom (    5.0502 Bohr)


  Bond distances (Angstrom):
  --------------------------

                  atom 1     atom 2       distance
                  ------     ------       --------
  bond distance:  H          N            1.040404
  bond distance:  H          N            1.039457
  bond distance:  H          N            1.074868
  bond distance:  H          N            1.007853
  bond distance:  H          O            1.035564
  bond distance:  H          O            1.010271
  bond distance:  H          O            0.998200
  bond distance:  H          O            0.999583
  bond distance:  H          O            0.970915
  bond distance:  H          O            0.981261
  bond distance:  H          O            1.002529
  bond distance:  H          O            1.013085


  Bond angles (degrees):
  ----------------------

                  atom 1     atom 2     atom 3         angle
                  ------     ------     ------         -----
  bond angle:     H          N          H             97.804
  bond angle:     H          N          H            115.407
  bond angle:     H          N          H            113.621
  bond angle:     H          N          H            114.218
  bond angle:     H          N          H            101.545
  bond angle:     H          N          H            112.549
  bond angle:     H          O          H            103.046
  bond angle:     H          O          H            119.855
  bond angle:     H          O          H            100.426
  bond angle:     H          O          H            107.322




 Principal moments of inertia (u*A**2) and principal axes
 --------------------------------------------------------

   IA     282.370064          0.988279    0.003964    0.152606
   IB     392.125874         -0.105994   -0.701597    0.704646
   IC     470.084327         -0.109861    0.712563    0.692954


 Rotational constants
 --------------------

               A                   B                   C

           1789.7754           1288.8183           1075.0816 MHz
            0.059700            0.042990            0.035861 cm-1


@  Nuclear repulsion energy :  203.429446796516 Hartree

  Reading potential input file for polarizable embedding calculation
 
    .------------------------------------------------.
    | Information from polarizable embedding library |
    `------------------------------------------------´

      Number of classical sites:    177

      Multipole moments upto 0th order.

      Dipole-dipole polarizabilities.

      Iterative solver for induced moments will be used
      with convergence threshold: 1.0E-08
      Total charge of classical region:    0.0000
 


                     .---------------------------------------.
                     | Starting in Integral Section (HERMIT) |
                     `---------------------------------------'



 ***************************************************************************************
 ****************** Output from **INTEGRALS input processing (HERMIT) ******************
 ***************************************************************************************



    *************************************************************************
    ****************** Output from HERMIT input processing ******************
    *************************************************************************


 Default print level:        1

 * Nuclear model: Point charge

 Calculation of one- and two-electron Hamiltonian integrals.

 The following one-electron property integrals are calculated as requested:
          - overlap integrals
          - dipole length integrals

 Center of mass  (bohr):      0.929532560839     -0.189298777579     -0.672999514538
 Operator center (bohr):      0.000000000000      0.000000000000      0.000000000000
 Gauge origin    (bohr):      0.000000000000      0.000000000000      0.000000000000
 Dipole origin   (bohr):      0.000000000000      0.000000000000      0.000000000000


     ************************************************************************
     ************************** Output from HERINT **************************
     ************************************************************************



                      Nuclear contribution to dipole moments
                      --------------------------------------

                 au               Debye          C m (/(10**-30)

      x     47.61389660       121.02244589       403.68742661
      y     -9.43126026       -23.97187095       -79.96155443
      z    -33.49512722       -85.13611595      -283.98351485



 Threshold for neglecting two-electron integrals:  1.00D-12
 HERMIT - Number of two-electron integrals written:    52438914 ( 49.6% )
 HERMIT - Megabytes written:                            600.455

  Time used in TWOINT     is       8.73 seconds
  Total CPU  time used in HERMIT:   9.15 seconds
  Total wall time used in HERMIT:   8.15 seconds


                        .----------------------------------.
                        | End of Integral Section (HERMIT) |
                        `----------------------------------'



                   .--------------------------------------------.
                   | Starting in Wave Function Section (SIRIUS) |
                   `--------------------------------------------'

 INPUT: SIMPLE =  F
NCCEXCI for singlet:   15
 CCSD_INPUT: core-val requested
 Requested number of core orbs per sym
                     1
 Indices of requested core orbs
                     1

 *** Output from Huckel module :

     Using EWMO model:          T
     Using EHT  model:          F
     Number of Huckel orbitals each symmetry:   37

 EWMO - Energy Weighted Maximum Overlap - is a Huckel type method,
        which normally is better than Extended Huckel Theory.
 Reference: Linderberg and Ohrn, Propagators in Quantum Chemistry (Wiley, 1973)

 Huckel EWMO eigenvalues for symmetry :  1
          -20.684779     -20.684501     -20.684233     -20.684118     -15.675603
           -1.813351      -1.618700      -1.595818      -1.575744      -1.480393
           -0.831393      -0.813496      -0.793122      -0.781569      -0.768643
           -0.757463      -0.740639      -0.696764      -0.670003      -0.649121
           -0.634528      -0.610394      -0.581192      -0.562200      -0.555478
           -0.267485      -0.251157      -0.248472      -0.231626      -0.189137
           -0.183689      -0.177472      -0.176552      -0.174364      -0.151309
           -0.142151      -0.139142

 **********************************************************************
 *SIRIUS* a direct, restricted step, second order MCSCF program       *
 **********************************************************************

 
     Date and time (Linux)  : Thu Dec 20 05:47:48 2018
     Host name              : s71p32.deic.sdu.dk                      

 Title lines from ".mol" input file:
                                                                             
                                                                             

 Print level on unit LUPRI =   2 is   0
 Print level on unit LUW4  =   2 is  11

@    (Integral direct) CC calculation.

@    This is a combination run starting with
@              a restricted, closed shell Hartree-Fock calculation


 Initial molecular orbitals are obtained according to
 ".MOSTART EWMO  " input option

@    QM part is embedded in an environment :

@         Model: PE

     Wave function specification
     ============================

     For the specification of the Coupled Cluster: see later.


     Wave function environment is modeled using the
     polarizable embedding model (PE library).

@    Wave function type        --- PE-CC ---
@    Number of closed shell electrons          50
@    Number of electrons in active shells       0
@    Total charge of the molecule               1

@    Spin multiplicity and 2 M_S                1         0
@    Total number of symmetries                 1 (point group: C1 )
@    Reference state symmetry                   1 (irrep name : A  )

     Orbital specifications
     ======================
@    Abelian symmetry species          All |    1
@                                          |  A  
                                       --- |  ---
@    Occupied SCF orbitals              25 |   25
@    Secondary orbitals                145 |  145
@    Total number of orbitals          170 |  170
@    Number of basis functions         170 |  170

     Optimization information
     ========================
@    Number of configurations                 1
@    Number of orbital rotations           3625
     ------------------------------------------
@    Total number of variables             3626

     Maximum number of Fock   iterations      0
     Maximum number of DIIS   iterations     60
     Maximum number of QC-SCF iterations     60
     Threshold for SCF convergence     1.00D-07


 Changes of defaults for CC:
 ---------------------------


 -Implicit frozen core calculation
 -Excitation energies calculated
 -One-photon absorption strengths will be calculated
 -Oscillator strengths calculated
  
* Read MO coefficients from SIRIUS.RST with label "NEWORB  " and header info: 20Dec18  REORTHO 


 ***********************************************
 ***** DIIS acceleration of SCF iterations *****
 ***********************************************

 C1-DIIS algorithm; max error vectors =    8
 -----------------------------------------------------------------------------

 *** DIIS iteration number    1
 RDSUPM called. NFMAT, ISYMDM(1:NFMAT)                     1
                     1

Calculating AOSUPINT
     (Precalculated AO two-electron integrals are transformed to P-supermatrix elements.
      Threshold for discarding integrals :  1.00D-12 )
  CPU  time used in FORMSUP    is   5.20 seconds
  WALL time used in FORMSUP    is   9.70 seconds

 ITDIIS, energy, error norm, change in energy, scr.thr., difden:
@ DIIS iter.   1    -360.226896771        3.94536D+00   -3.60D+02  -20    F

 (DIIS_RED) Control Parameters C2DIIS =         F NEVC =    1


 (DIIS_RED) B matrix:

               Column   1
       1      15.56588505
    ==== End of matrix output ====

 DIIS C vector; C2DIIS = F, LAMBDA = -1.56D+01
    1.000000
* Read MO coefficients from SIRIUS.RST with label "NEWORB  " and header info: 20Dec18  DIIS   1
      Virial theorem: -V/T =      2.003177
@    MULPOP   N      -0.15; H       0.24; H       0.21; H       0.21; H       0.19; O      -0.55; O      -0.54; O      -0.59; O      -0.59; H       0.31; 
@             H       0.32; H       0.32; H       0.32; H       0.32; H       0.32; H       0.32; H       0.32; 
   1  Level shift: doubly occupied orbital energies shifted by -2.00D-01

 DIIS Fock eigenvalues in symmetry 1
      -20.85438      -20.84438      -20.82617      -20.80443      -16.45663
       -1.73505       -1.68318       -1.64253       -1.63632       -1.60673
       -1.21894       -1.20805       -1.18262       -1.04958       -1.03862
       -1.01765       -0.97401       -0.93658       -0.89306       -0.88723
       -0.88307       -0.87026       -0.86458       -0.85388       -0.82985
       -0.04405        0.00047        0.01140        0.02809        0.08676
        0.08788        0.09653        0.10010        0.12385        0.14659
        0.15049        0.15892        0.16568        0.18301        0.19166
        0.20278        0.20614        0.23148        0.23811        0.27686
        0.41609        0.42650        0.43844        0.46389        0.46582
        0.47638        0.49280        0.50974        0.52400        0.53825
        0.55572        0.69463        0.71526        0.74110        0.76564
        0.79779        0.84862        0.88774        0.91220        0.93817
        0.96241        0.97172        1.00109        1.01168        1.03387
        1.03778        1.05129        1.06826        1.08719        1.14080
        1.24898        1.29558        1.31414        1.34664        1.35563
        1.37637        1.38152        1.39546        1.41447        1.41985
        1.47956        1.49251        1.53430        1.55441        1.56113
        1.59973        1.63879        1.68900        1.72506        1.72947
        1.77077        1.80004        1.80433        1.94487        1.98422
        2.02169        2.06796        2.07585        2.08637        2.09940
        2.17540        2.18332        2.18916        2.21661        2.23930
        2.24368        2.28371        2.44272        2.48968        2.52470
        2.57931        2.61500        2.63213        2.63882        2.66080
        2.67714        2.70456        2.71900        2.76235        2.78620
        2.80173        2.96553        3.04687        3.07865        3.13399
        3.30265        3.33425        3.34422        3.35248        3.36153
        3.36541        3.39546        3.40562        3.45703        3.50035
        3.51813        3.53220        3.83354        3.86769        3.87965
        3.97998        3.99052        4.05853        4.10645        4.12110
        4.64701        4.80637        4.84480        5.23370        5.26388
        5.28865        5.29473        5.63851        5.70195        5.72548
        5.75283        5.90300        5.93734        5.94749        6.02308
       36.41118       51.42500       51.44727       51.45852       51.46741
 Time used in FCKEIG, thr_jaco:   1.09D-01  6.20D-02  1.64D-04
 CPU and wall times used in FCKEIG, THR_FCKEIG:   1.09D-01  6.70D-02  3.95D-02
 -----------------------------------------------------------------------------

 *** DIIS iteration number    2
 RDSUPM called. NFMAT, ISYMDM(1:NFMAT)                     1
                     1

 ITDIIS, energy, error norm, change in energy, scr.thr., difden:
@ DIIS iter.   2    -361.111056777        1.13979D+00   -8.84D-01  -20    F

 (DIIS_RED) Control Parameters C2DIIS =         F NEVC =    2


 (DIIS_RED) B matrix:

               Column   1     Column   2
       1      15.56588505
       2       0.80287772     1.29912115
    ==== End of matrix output ====

 DIIS C vector; C2DIIS = F, LAMBDA = -1.28D+00
    0.032521    0.967479
* Read MO coefficients from SIRIUS.RST with label "NEWORB  " and header info: 20Dec18  DIIS   2
      Virial theorem: -V/T =      2.002683
@    MULPOP   N      -0.87; H       0.43; H       0.40; H       0.41; H       0.37; O      -0.59; O      -0.62; O      -0.57; O      -0.58; H       0.36; 
@             H       0.31; H       0.34; H       0.36; H       0.31; H       0.30; H       0.29; H       0.35; 
   2  Level shift: doubly occupied orbital energies shifted by -1.00D-01

 DIIS Fock eigenvalues in symmetry 1
      -20.79455      -20.78911      -20.77431      -20.76532      -15.63372
       -1.56669       -1.53505       -1.53459       -1.50552       -1.38830
       -0.91906       -0.91836       -0.90024       -0.89592       -0.88743
       -0.85585       -0.84852       -0.82328       -0.78361       -0.76398
       -0.75557       -0.74535       -0.73028       -0.72046       -0.70014
       -0.01479        0.01968        0.02994        0.04691        0.11804
        0.12516        0.13412        0.15128        0.15764        0.17030
        0.18734        0.19198        0.20835        0.21896        0.22626
        0.24644        0.25586        0.29979        0.32153        0.34819
        0.45469        0.47342        0.49723        0.50085        0.51579
        0.52596        0.53390        0.55707        0.57415        0.58202
        0.59776        0.78437        0.82748        0.86527        0.88411
        0.90284        0.91866        0.93116        0.95329        0.96700
        0.98925        1.01053        1.04057        1.05513        1.07550
        1.08271        1.10038        1.14193        1.16902        1.24236
        1.32438        1.34689        1.35697        1.39018        1.40885
        1.43346        1.44116        1.44541        1.46208        1.47271
        1.53098        1.57902        1.61318        1.62372        1.63950
        1.67999        1.71511        1.74759        1.78585        1.81864
        1.84636        1.86483        1.88969        2.05891        2.08409
        2.10821        2.12216        2.12862        2.13856        2.20459
        2.23638        2.25324        2.26895        2.28001        2.30682
        2.33565        2.41482        2.54030        2.58616        2.60933
        2.67317        2.69404        2.71605        2.73452        2.73749
        2.74766        2.80510        2.82471        2.92147        2.95711
        2.97730        3.16462        3.23026        3.28362        3.32598
        3.36818        3.37704        3.37979        3.38404        3.40115
        3.41477        3.43607        3.48408        3.52169        3.54052
        3.55419        3.56710        3.86108        3.88425        3.89949
        4.00981        4.02255        4.07482        4.12331        4.15033
        5.03108        5.18657        5.20718        5.24499        5.27964
        5.29266        5.31156        5.65282        5.71309        5.72268
        5.75177        5.90906        5.94438        5.97252        6.04685
       37.11726       51.38022       51.39703       51.40744       51.42883
 Time used in FCKEIG, thr_jaco:   8.62D-02  3.60D-02  4.73D-05
 CPU and wall times used in FCKEIG, THR_FCKEIG:   8.63D-02  3.60D-02  1.14D-02
 -----------------------------------------------------------------------------

 *** DIIS iteration number    3
 RDSUPM called. NFMAT, ISYMDM(1:NFMAT)                     1
                     1

 ITDIIS, energy, error norm, change in energy, scr.thr., difden:
@ DIIS iter.   3    -361.188009617        3.80459D-01   -7.70D-02  -20    F

 (DIIS_RED) Control Parameters C2DIIS =         F NEVC =    3


 (DIIS_RED) B matrix:

               Column   1     Column   2     Column   3
       1      15.56588505
       2       0.80287772     1.29912115
       3       0.82664236    -0.00252176     0.14474894
    ==== End of matrix output ====

 DIIS C vector; C2DIIS = F, LAMBDA = -9.54D-02
   -0.049438    0.105856    0.943582
* Read MO coefficients from SIRIUS.RST with label "NEWORB  " and header info: 20Dec18  DIIS   3
      Virial theorem: -V/T =      2.003545
@    MULPOP   N      -0.77; H       0.42; H       0.38; H       0.41; H       0.33; O      -0.67; O      -0.69; O      -0.62; O      -0.64; H       0.40; 
@             H       0.34; H       0.37; H       0.40; H       0.34; H       0.33; H       0.31; H       0.38; 
   3  Level shift: doubly occupied orbital energies shifted by -5.00D-02

 DIIS Fock eigenvalues in symmetry 1
      -20.71234      -20.69340      -20.68774      -20.66488      -15.79170
       -1.50209       -1.46788       -1.46390       -1.43382       -1.38762
       -0.87564       -0.86935       -0.85204       -0.84935       -0.82759
       -0.82475       -0.78311       -0.75788       -0.71280       -0.69565
       -0.68797       -0.67510       -0.65531       -0.65026       -0.62381
       -0.01080        0.02173        0.03340        0.05082        0.12379
        0.13066        0.13935        0.15331        0.16136        0.17472
        0.19349        0.19508        0.21420        0.22499        0.23045
        0.24697        0.26265        0.29876        0.32119        0.34868
        0.46704        0.48179        0.50504        0.51062        0.52163
        0.53247        0.54399        0.56004        0.58006        0.59039
        0.60266        0.78715        0.83324        0.86120        0.87409
        0.89871        0.92071        0.94276        0.96631        0.98054
        1.00283        1.02486        1.05104        1.06910        1.08950
        1.09934        1.11398        1.13854        1.17306        1.24325
        1.33011        1.35933        1.37052        1.40423        1.42384
        1.44737        1.45488        1.45866        1.47553        1.48517
        1.54151        1.58722        1.62103        1.63225        1.64830
        1.68583        1.72171        1.75722        1.79825        1.82500
        1.85708        1.87625        1.89327        2.05847        2.08839
        2.12120        2.13694        2.14287        2.14859        2.21195
        2.24589        2.26410        2.28648        2.29202        2.32289
        2.33391        2.41044        2.54892        2.59490        2.61855
        2.68472        2.70248        2.72552        2.73975        2.74640
        2.75693        2.81494        2.82810        2.92560        2.93087
        2.95040        3.14899        3.22793        3.26525        3.34318
        3.37363        3.38974        3.40402        3.40890        3.41308
        3.41970        3.45941        3.48525        3.55031        3.55306
        3.57262        3.58898        3.88411        3.91305        3.92542
        4.03494        4.04898        4.10484        4.15443        4.17360
        4.95347        5.11279        5.14558        5.27352        5.30390
        5.32215        5.32867        5.67986        5.73963        5.75676
        5.78501        5.94579        5.97905        5.99866        6.07654
       36.91569       51.41840       51.43727       51.45683       51.46643
 Time used in FCKEIG, thr_jaco:   8.17D-02  3.10D-02  1.58D-05
 CPU and wall times used in FCKEIG, THR_FCKEIG:   8.18D-02  3.10D-02  3.80D-03
 -----------------------------------------------------------------------------

 *** DIIS iteration number    4
 RDSUPM called. NFMAT, ISYMDM(1:NFMAT)                     1
                     1

 ITDIIS, energy, error norm, change in energy, scr.thr., difden:
@ DIIS iter.   4    -361.198738896        9.55362D-02   -1.07D-02  -20    F

 (DIIS_RED) Control Parameters C2DIIS =         F NEVC =    4


 (DIIS_RED) B matrix:

               Column   1     Column   2     Column   3     Column   4
       1      15.56588505
       2       0.80287772     1.29912115
       3       0.82664236    -0.00252176     0.14474894
       4       0.05609022     0.07802154     0.00585970     0.00912716
    ==== End of matrix output ====

 DIIS C vector; C2DIIS = F, LAMBDA = -4.99D-03
    0.000164   -0.060618   -0.010858    1.071312
* Read MO coefficients from SIRIUS.RST with label "NEWORB  " and header info: 20Dec18  DIIS   4
      Virial theorem: -V/T =      2.003531
@    MULPOP   N      -0.83; H       0.43; H       0.39; H       0.42; H       0.35; O      -0.68; O      -0.71; O      -0.64; O      -0.65; H       0.41; 
@             H       0.34; H       0.38; H       0.41; H       0.34; H       0.33; H       0.31; H       0.39; 
   4  Level shift: doubly occupied orbital energies shifted by -2.50D-02

 DIIS Fock eigenvalues in symmetry 1
      -20.69740      -20.68201      -20.67705      -20.65799      -15.73442
       -1.48161       -1.44696       -1.44335       -1.41431       -1.35078
       -0.84150       -0.83443       -0.83103       -0.82622       -0.80587
       -0.78941       -0.76288       -0.73503       -0.68949       -0.67214
       -0.66470       -0.65011       -0.63028       -0.62504       -0.60015
       -0.00973        0.02205        0.03365        0.05188        0.12321
        0.13155        0.14103        0.15506        0.16282        0.17554
        0.19237        0.19593        0.21364        0.22423        0.23102
        0.25020        0.26249        0.30457        0.32631        0.35237
        0.46662        0.48235        0.50636        0.51009        0.52338
        0.53383        0.54343        0.56262        0.58042        0.58984
        0.60408        0.79187        0.83671        0.86700        0.87979
        0.90482        0.92428        0.94381        0.96701        0.98071
        1.00213        1.02448        1.05130        1.06809        1.08704
        1.09661        1.11238        1.14296        1.17361        1.24671
        1.33231        1.35927        1.37003        1.40287        1.42288
        1.44693        1.45273        1.45791        1.47535        1.48361
        1.54114        1.58998        1.62194        1.63351        1.64964
        1.68755        1.72433        1.75759        1.79767        1.82880
        1.85656        1.87370        1.89791        2.06439        2.09341
        2.12064        2.13607        2.13995        2.14801        2.21364
        2.24632        2.26371        2.28401        2.29153        2.31896
        2.33851        2.41719        2.54886        2.59590        2.61838
        2.68403        2.70520        2.72634        2.74226        2.74672
        2.75617        2.81509        2.83330        2.93266        2.94103
        2.96079        3.15719        3.23452        3.27361        3.34418
        3.38183        3.38699        3.40170        3.40469        3.41045
        3.41788        3.45625        3.48656        3.54723        3.55465
        3.56887        3.58608        3.88079        3.90801        3.92200
        4.03124        4.04556        4.10151        4.14951        4.17062
        4.97062        5.12988        5.16095        5.26696        5.29919
        5.31664        5.32180        5.67418        5.73459        5.74952
        5.77771        5.93642        5.97214        5.99278        6.06940
       36.94758       51.40754       51.42482       51.43963       51.45225
 Time used in FCKEIG, thr_jaco:   7.87D-02  2.80D-02  3.97D-06
 CPU and wall times used in FCKEIG, THR_FCKEIG:   7.88D-02  2.80D-02  9.55D-04
 -----------------------------------------------------------------------------

 *** DIIS iteration number    5
 RDSUPM called. NFMAT, ISYMDM(1:NFMAT)                     1
                     1

 ITDIIS, energy, error norm, change in energy, scr.thr., difden:
@ DIIS iter.   5    -361.199826458        3.18581D-02   -1.09D-03  -20    F

 (DIIS_RED) Control Parameters C2DIIS =         F NEVC =    5


 (DIIS_RED) B matrix:

               Column   1     Column   2     Column   3     Column   4     Column   5
       1      15.56588505
       2       0.80287772     1.29912115
       3       0.82664236    -0.00252176     0.14474894
       4       0.05609022     0.07802154     0.00585970     0.00912716
       5       0.02378515     0.00871970     0.00618696     0.00097941     0.00101494
    ==== End of matrix output ====

 DIIS C vector; C2DIIS = F, LAMBDA = -6.86D-04
    0.001503   -0.013578   -0.049190    0.111693    0.949571
* Read MO coefficients from SIRIUS.RST with label "NEWORB  " and header info: 20Dec18  DIIS   5
      Virial theorem: -V/T =      2.003163
@    MULPOP   N      -0.82; H       0.43; H       0.38; H       0.42; H       0.34; O      -0.70; O      -0.72; O      -0.65; O      -0.67; H       0.42; 
@             H       0.35; H       0.39; H       0.42; H       0.35; H       0.34; H       0.32; H       0.40; 
   5  Level shift: doubly occupied orbital energies shifted by -1.25D-02

 DIIS Fock eigenvalues in symmetry 1
      -20.68049      -20.66214      -20.65624      -20.63585      -15.71793
       -1.46754       -1.43162       -1.42813       -1.39838       -1.33650
       -0.82750       -0.82035       -0.81676       -0.81252       -0.79149
       -0.77498       -0.74789       -0.72143       -0.67471       -0.65712
       -0.64952       -0.63519       -0.61422       -0.60911       -0.58350
       -0.00936        0.02225        0.03392        0.05234        0.12346
        0.13201        0.14160        0.15558        0.16336        0.17598
        0.19270        0.19634        0.21403        0.22456        0.23146
        0.25102        0.26315        0.30589        0.32740        0.35338
        0.46730        0.48305        0.50719        0.51075        0.52415
        0.53466        0.54409        0.56341        0.58089        0.59058
        0.60474        0.79300        0.83807        0.86833        0.88126
        0.90648        0.92574        0.94613        0.96900        0.98228
        1.00367        1.02614        1.05264        1.06979        1.08849
        1.09814        1.11401        1.14450        1.17473        1.24819
        1.33335        1.36037        1.37150        1.40355        1.42367
        1.44792        1.45328        1.45893        1.47655        1.48430
        1.54218        1.59077        1.62271        1.63439        1.65048
        1.68836        1.72521        1.75818        1.79808        1.82976
        1.85695        1.87362        1.89903        2.06560        2.09456
        2.12164        2.13696        2.14058        2.14919        2.21470
        2.24732        2.26474        2.28503        2.29293        2.31949
        2.33976        2.41838        2.54919        2.59650        2.61885
        2.68445        2.70585        2.72668        2.74292        2.74715
        2.75630        2.81536        2.83430        2.93383        2.94256
        2.96233        3.15919        3.23629        3.27589        3.34683
        3.38400        3.38871        3.40360        3.40790        3.41334
        3.42062        3.45921        3.48965        3.54997        3.55743
        3.57224        3.58768        3.88267        3.91148        3.92449
        4.03408        4.04868        4.10452        4.15325        4.17239
        4.97305        5.13233        5.16359        5.27187        5.30228
        5.32108        5.32712        5.67819        5.73800        5.75416
        5.78220        5.94153        5.97609        5.99499        6.07370
       36.95150       51.41281       51.43142       51.44895       51.46042
 Time used in FCKEIG, thr_jaco:   7.70D-02  2.70D-02  1.32D-06
 CPU and wall times used in FCKEIG, THR_FCKEIG:   7.71D-02  2.70D-02  3.19D-04
 -----------------------------------------------------------------------------

 *** DIIS iteration number    6
 RDSUPM called. NFMAT, ISYMDM(1:NFMAT)                     1
                     1

 ITDIIS, energy, error norm, change in energy, scr.thr., difden:
@ DIIS iter.   6    -361.199929883        1.15130D-02   -1.03D-04  -20    F

 (DIIS_RED) Control Parameters C2DIIS =         F NEVC =    6


 (DIIS_RED) B matrix:

               Column   1     Column   2     Column   3     Column   4     Column   5     Column   6
       1      15.56588505
       2       0.80287772     1.29912115
       3       0.82664236    -0.00252176     0.14474894
       4       0.05609022     0.07802154     0.00585970     0.00912716
       5       0.02378515     0.00871970     0.00618696     0.00097941     0.00101494
       6      -0.00485842     0.00001213     0.00087184     0.00064317     0.00003516     0.00013255
    ==== End of matrix output ====

 DIIS C vector; C2DIIS = F, LAMBDA = -3.75D-05
    0.000789    0.007210   -0.009519   -0.141007    0.115024    1.027503
* Read MO coefficients from SIRIUS.RST with label "NEWORB  " and header info: 20Dec18  DIIS   6
      Virial theorem: -V/T =      2.003427
@    MULPOP   N      -0.81; H       0.43; H       0.38; H       0.42; H       0.34; O      -0.70; O      -0.73; O      -0.65; O      -0.67; H       0.42; 
@             H       0.35; H       0.39; H       0.42; H       0.35; H       0.34; H       0.32; H       0.40; 

 DIIS Fock eigenvalues in symmetry 1
      -20.66913      -20.65162      -20.64624      -20.62627      -15.70754
       -1.45530       -1.41990       -1.41613       -1.38673       -1.32457
       -0.81562       -0.80838       -0.80518       -0.80048       -0.77958
       -0.76293       -0.73626       -0.70952       -0.66295       -0.64552
       -0.63798       -0.62280       -0.60208       -0.59695       -0.57156
       -0.00935        0.02225        0.03390        0.05234        0.12334
        0.13192        0.14157        0.15554        0.16333        0.17592
        0.19253        0.19628        0.21386        0.22438        0.23131
        0.25093        0.26296        0.30570        0.32713        0.35314
        0.46712        0.48283        0.50693        0.51049        0.52392
        0.53443        0.54385        0.56327        0.58070        0.59027
        0.60456        0.79285        0.83777        0.86810        0.88090
        0.90622        0.92543        0.94582        0.96871        0.98199
        1.00320        1.02569        1.05238        1.06927        1.08796
        1.09768        1.11347        1.14416        1.17445        1.24785
        1.33310        1.36005        1.37110        1.40308        1.42332
        1.44752        1.45296        1.45851        1.47618        1.48389
        1.54183        1.59052        1.62239        1.63403        1.65018
        1.68796        1.72487        1.75784        1.79782        1.82955
        1.85662        1.87334        1.89879        2.06535        2.09439
        2.12119        2.13654        2.14014        2.14875        2.21418
        2.24679        2.26426        2.28460        2.29240        2.31912
        2.33939        2.41803        2.54890        2.59617        2.61846
        2.68395        2.70565        2.72630        2.74257        2.74686
        2.75601        2.81501        2.83410        2.93366        2.94208
        2.96183        3.15852        3.23589        3.27514        3.34619
        3.38333        3.38828        3.40307        3.40693        3.41256
        3.41977        3.45824        3.48872        3.54933        3.55655
        3.57122        3.58723        3.88216        3.91042        3.92384
        4.03307        4.04767        4.10380        4.15215        4.17192
        4.97204        5.13129        5.16255        5.27054        5.30157
        5.32004        5.32563        5.67696        5.73705        5.75285
        5.78090        5.93990        5.97499        5.99431        6.07225
       36.94943       51.41144       51.42962       51.44613       51.45796
 Time used in FCKEIG, thr_jaco:   7.66D-02  2.70D-02  4.78D-07
 CPU and wall times used in FCKEIG, THR_FCKEIG:   7.67D-02  2.70D-02  1.15D-04
 -----------------------------------------------------------------------------

 *** DIIS iteration number    7
 RDSUPM called. NFMAT, ISYMDM(1:NFMAT)                     1
                     1

 ITDIIS, energy, error norm, change in energy, scr.thr., difden:
@ DIIS iter.   7    -361.199944681        2.27246D-03   -1.48D-05  -20    F

 (DIIS_RED) Control Parameters C2DIIS =         F NEVC =    7


 (DIIS_RED) B matrix:

               Column   1     Column   2     Column   3     Column   4     Column   5     Column   6
       1      15.56588505
       2       0.80287772     1.29912115
       3       0.82664236    -0.00252176     0.14474894
       4       0.05609022     0.07802154     0.00585970     0.00912716
       5       0.02378515     0.00871970     0.00618696     0.00097941     0.00101494
       6      -0.00485842     0.00001213     0.00087184     0.00064317     0.00003516     0.00013255
       7       0.00033110     0.00019182    -0.00000699     0.00000676     0.00004960     0.00000056

               Column   7
       7       0.00000516
    ==== End of matrix output ====

 DIIS C vector; C2DIIS = F, LAMBDA = -1.27D-06
   -0.000245   -0.000696    0.005345    0.021984   -0.094748   -0.121099    1.189459
* Read MO coefficients from SIRIUS.RST with label "NEWORB  " and header info: 20Dec18  DIIS   7
      Virial theorem: -V/T =      2.003366
@    MULPOP   N      -0.81; H       0.43; H       0.38; H       0.42; H       0.34; O      -0.70; O      -0.73; O      -0.65; O      -0.67; H       0.42; 
@             H       0.35; H       0.39; H       0.42; H       0.35; H       0.34; H       0.32; H       0.40; 

 DIIS Fock eigenvalues in symmetry 1
      -20.66912      -20.65136      -20.64596      -20.62580      -15.70712
       -1.45526       -1.41976       -1.41599       -1.38653       -1.32436
       -0.81547       -0.80823       -0.80511       -0.80041       -0.77949
       -0.76276       -0.73613       -0.70957       -0.66291       -0.64544
       -0.63788       -0.62271       -0.60190       -0.59678       -0.57130
       -0.00931        0.02227        0.03392        0.05238        0.12336
        0.13196        0.14163        0.15559        0.16338        0.17596
        0.19255        0.19632        0.21388        0.22441        0.23134
        0.25100        0.26301        0.30581        0.32724        0.35324
        0.46716        0.48289        0.50700        0.51053        0.52399
        0.53451        0.54389        0.56335        0.58074        0.59032
        0.60464        0.79297        0.83786        0.86822        0.88103
        0.90636        0.92554        0.94596        0.96883        0.98206
        1.00330        1.02580        1.05245        1.06939        1.08801
        1.09774        1.11354        1.14430        1.17453        1.24798
        1.33318        1.36012        1.37120        1.40311        1.42336
        1.44758        1.45298        1.45857        1.47626        1.48392
        1.54190        1.59060        1.62245        1.63410        1.65024
        1.68803        1.72495        1.75789        1.79784        1.82964
        1.85664        1.87334        1.89890        2.06548        2.09450
        2.12124        2.13658        2.14017        2.14884        2.21426
        2.24685        2.26432        2.28464        2.29249        2.31912
        2.33951        2.41817        2.54893        2.59622        2.61848
        2.68397        2.70571        2.72632        2.74263        2.74689
        2.75603        2.81503        2.83420        2.93379        2.94226
        2.96201        3.15872        3.23605        3.27534        3.34633
        3.38351        3.38832        3.40314        3.40710        3.41271
        3.41991        3.45838        3.48894        3.54946        3.55673
        3.57143        3.58728        3.88221        3.91061        3.92394
        4.03321        4.04782        4.10394        4.15237        4.17197
        4.97230        5.13156        5.16281        5.27074        5.30164
        5.32023        5.32591        5.67711        5.73716        5.75306
        5.78110        5.94017        5.97515        5.99433        6.07242
       36.94983       51.41152       51.42982       51.44657       51.45824
 Time used in FCKEIG, thr_jaco:   7.67D-02  2.60D-02  9.44D-08
 CPU and wall times used in FCKEIG, THR_FCKEIG:   7.68D-02  2.60D-02  2.27D-05
 -----------------------------------------------------------------------------

 *** DIIS iteration number    8
 RDSUPM called. NFMAT, ISYMDM(1:NFMAT)                     1
                     1

 ITDIIS, energy, error norm, change in energy, scr.thr., difden:
@ DIIS iter.   8    -361.199945223        3.87412D-04   -5.42D-07  -20    F

 (DIIS_RED) Control Parameters C2DIIS =         F NEVC =    8


 (DIIS_RED) B matrix:

               Column   1     Column   2     Column   3     Column   4     Column   5     Column   6
       1      15.56588505
       2       0.80287772     1.29912115
       3       0.82664236    -0.00252176     0.14474894
       4       0.05609022     0.07802154     0.00585970     0.00912716
       5       0.02378515     0.00871970     0.00618696     0.00097941     0.00101494
       6      -0.00485842     0.00001213     0.00087184     0.00064317     0.00003516     0.00013255
       7       0.00033110     0.00019182    -0.00000699     0.00000676     0.00004960     0.00000056
       8       0.00012196    -0.00004550     0.00001161     0.00000103     0.00000061     0.00000160

               Column   7     Column   8
       7       0.00000516
       8       0.00000033     0.00000015
    ==== End of matrix output ====

 DIIS C vector; C2DIIS = F, LAMBDA = -1.04D-07
   -0.000012   -0.000081   -0.000242    0.001674    0.006334   -0.020901   -0.109616    1.122843
* Read MO coefficients from SIRIUS.RST with label "NEWORB  " and header info: 20Dec18  DIIS   8
      Virial theorem: -V/T =      2.003382
@    MULPOP   N      -0.81; H       0.43; H       0.38; H       0.42; H       0.34; O      -0.70; O      -0.73; O      -0.65; O      -0.67; H       0.42; 
@             H       0.35; H       0.39; H       0.42; H       0.35; H       0.34; H       0.32; H       0.40; 

 DIIS Fock eigenvalues in symmetry 1
      -20.66901      -20.65136      -20.64593      -20.62590      -15.70714
       -1.45522       -1.41974       -1.41598       -1.38656       -1.32437
       -0.81548       -0.80823       -0.80509       -0.80039       -0.77948
       -0.76277       -0.73614       -0.70955       -0.66292       -0.64546
       -0.63791       -0.62267       -0.60189       -0.59677       -0.57133
       -0.00931        0.02227        0.03392        0.05238        0.12336
        0.13196        0.14162        0.15559        0.16338        0.17596
        0.19255        0.19632        0.21388        0.22441        0.23134
        0.25100        0.26301        0.30580        0.32723        0.35323
        0.46717        0.48290        0.50700        0.51053        0.52399
        0.53450        0.54389        0.56335        0.58074        0.59031
        0.60464        0.79296        0.83786        0.86822        0.88103
        0.90636        0.92554        0.94595        0.96883        0.98207
        1.00330        1.02580        1.05247        1.06938        1.08801
        1.09774        1.11353        1.14429        1.17454        1.24798
        1.33319        1.36013        1.37119        1.40311        1.42336
        1.44758        1.45299        1.45856        1.47625        1.48391
        1.54189        1.59059        1.62244        1.63410        1.65024
        1.68803        1.72494        1.75788        1.79784        1.82964
        1.85663        1.87334        1.89889        2.06547        2.09449
        2.12124        2.13658        2.14017        2.14883        2.21426
        2.24685        2.26432        2.28463        2.29247        2.31914
        2.33949        2.41816        2.54893        2.59621        2.61848
        2.68397        2.70570        2.72632        2.74262        2.74689
        2.75603        2.81502        2.83419        2.93378        2.94225
        2.96199        3.15870        3.23603        3.27532        3.34633
        3.38350        3.38835        3.40316        3.40708        3.41271
        3.41992        3.45839        3.48891        3.54946        3.55672
        3.57140        3.58732        3.88224        3.91057        3.92395
        4.03321        4.04783        4.10394        4.15233        4.17201
        4.97228        5.13154        5.16279        5.27076        5.30168
        5.32023        5.32587        5.67713        5.73719        5.75304
        5.78108        5.94012        5.97515        5.99439        6.07244
       36.94981       51.41160       51.42985       51.44648       51.45826
 Time used in FCKEIG, thr_jaco:   8.10D-02  3.00D-02  1.61D-08
 CPU and wall times used in FCKEIG, THR_FCKEIG:   8.11D-02  3.00D-02  3.87D-06
 -----------------------------------------------------------------------------

 *** DIIS iteration number    9
 RDSUPM called. NFMAT, ISYMDM(1:NFMAT)                     1
                     1

 ITDIIS, energy, error norm, change in energy, scr.thr., difden:
@ DIIS iter.   9    -361.199945241        1.56789D-04   -1.75D-08  -20    F

 (DIIS_RED) Control Parameters C2DIIS =         F NEVC =    8


 (DIIS_RED) B matrix:

               Column   1     Column   2     Column   3     Column   4     Column   5     Column   6
       1       0.00000002
       2       0.00000049     1.29912115
       3      -0.00000116    -0.00252176     0.14474894
       4       0.00000015     0.07802154     0.00585970     0.00912716
       5       0.00000020     0.00871970     0.00618696     0.00097941     0.00101494
       6       0.00000005     0.00001213     0.00087184     0.00064317     0.00003516     0.00013255
       7       0.00000011     0.00019182    -0.00000699     0.00000676     0.00004960     0.00000056
       8       0.00000001    -0.00004550     0.00001161     0.00000103     0.00000061     0.00000160

               Column   7     Column   8
       7       0.00000516
       8       0.00000033     0.00000015
    ==== End of matrix output ====

 DIIS C vector; C2DIIS = F, LAMBDA = -1.29D-08
    0.822974    0.000023   -0.000264   -0.000719    0.006339    0.000564   -0.093242    0.264326
* Read MO coefficients from SIRIUS.RST with label "NEWORB  " and header info: 20Dec18  DIIS   9
      Virial theorem: -V/T =      2.003382
@    MULPOP   N      -0.81; H       0.43; H       0.38; H       0.42; H       0.34; O      -0.70; O      -0.73; O      -0.65; O      -0.67; H       0.42; 
@             H       0.35; H       0.39; H       0.42; H       0.35; H       0.34; H       0.32; H       0.40; 

 DIIS Fock eigenvalues in symmetry 1
      -20.66907      -20.65136      -20.64595      -20.62585      -15.70715
       -1.45523       -1.41975       -1.41598       -1.38654       -1.32437
       -0.81548       -0.80824       -0.80509       -0.80039       -0.77948
       -0.76277       -0.73613       -0.70957       -0.66293       -0.64546
       -0.63791       -0.62269       -0.60189       -0.59677       -0.57131
       -0.00931        0.02227        0.03392        0.05238        0.12336
        0.13196        0.14162        0.15559        0.16338        0.17596
        0.19255        0.19632        0.21388        0.22441        0.23134
        0.25100        0.26301        0.30580        0.32723        0.35323
        0.46717        0.48289        0.50700        0.51053        0.52399
        0.53450        0.54389        0.56335        0.58074        0.59032
        0.60464        0.79296        0.83785        0.86822        0.88103
        0.90636        0.92554        0.94596        0.96883        0.98207
        1.00330        1.02581        1.05246        1.06938        1.08800
        1.09774        1.11353        1.14429        1.17453        1.24797
        1.33318        1.36012        1.37120        1.40311        1.42335
        1.44757        1.45298        1.45856        1.47625        1.48391
        1.54189        1.59059        1.62244        1.63410        1.65024
        1.68802        1.72494        1.75788        1.79784        1.82964
        1.85664        1.87334        1.89889        2.06547        2.09449
        2.12124        2.13658        2.14017        2.14883        2.21425
        2.24685        2.26432        2.28463        2.29248        2.31913
        2.33949        2.41816        2.54893        2.59621        2.61848
        2.68397        2.70570        2.72632        2.74262        2.74689
        2.75603        2.81502        2.83419        2.93378        2.94224
        2.96199        3.15870        3.23604        3.27533        3.34633
        3.38350        3.38834        3.40315        3.40709        3.41271
        3.41991        3.45838        3.48892        3.54946        3.55672
        3.57141        3.58730        3.88222        3.91059        3.92394
        4.03321        4.04782        4.10394        4.15235        4.17199
        4.97228        5.13154        5.16279        5.27075        5.30166
        5.32022        5.32589        5.67712        5.73718        5.75305
        5.78109        5.94014        5.97515        5.99436        6.07243
       36.94981       51.41156       51.42983       51.44652       51.45825
 Time used in FCKEIG, thr_jaco:   7.48D-02  2.60D-02  6.51D-09
 CPU and wall times used in FCKEIG, THR_FCKEIG:   7.49D-02  2.60D-02  1.57D-06
 -----------------------------------------------------------------------------

 *** DIIS iteration number   10
 RDSUPM called. NFMAT, ISYMDM(1:NFMAT)                     1
                     1

 ITDIIS, energy, error norm, change in energy, scr.thr., difden:
@ DIIS iter.  10    -361.199945242        4.41169D-05   -1.70D-09  -20    F

 (DIIS_RED) Control Parameters C2DIIS =         F NEVC =    8


 (DIIS_RED) B matrix:

               Column   1     Column   2     Column   3     Column   4     Column   5     Column   6
       1       0.00000002
       2      -0.00000000     0.00000000
       3      -0.00000116    -0.00000074     0.14474894
       4       0.00000015    -0.00000003     0.00585970     0.00912716
       5       0.00000020     0.00000001     0.00618696     0.00097941     0.00101494
       6       0.00000005    -0.00000000     0.00087184     0.00064317     0.00003516     0.00013255
       7       0.00000011     0.00000002    -0.00000699     0.00000676     0.00004960     0.00000056
       8       0.00000001     0.00000001     0.00001161     0.00000103     0.00000061     0.00000160

               Column   7     Column   8
       7       0.00000516
       8       0.00000033     0.00000015
    ==== End of matrix output ====

 DIIS C vector; C2DIIS = F, LAMBDA = -4.64D-10
    0.005689    1.127367    0.000054   -0.000046   -0.001059    0.001890    0.016141   -0.150037
* Read MO coefficients from SIRIUS.RST with label "NEWORB  " and header info: 20Dec18  DIIS  10
      Virial theorem: -V/T =      2.003382
@    MULPOP   N      -0.81; H       0.43; H       0.38; H       0.42; H       0.34; O      -0.70; O      -0.73; O      -0.65; O      -0.67; H       0.42; 
@             H       0.35; H       0.39; H       0.42; H       0.35; H       0.34; H       0.32; H       0.40; 

 DIIS Fock eigenvalues in symmetry 1
      -20.66906      -20.65136      -20.64594      -20.62586      -15.70714
       -1.45523       -1.41974       -1.41598       -1.38654       -1.32437
       -0.81548       -0.80823       -0.80509       -0.80039       -0.77948
       -0.76277       -0.73613       -0.70957       -0.66293       -0.64547
       -0.63791       -0.62268       -0.60189       -0.59677       -0.57132
       -0.00931        0.02227        0.03392        0.05238        0.12336
        0.13196        0.14163        0.15559        0.16338        0.17596
        0.19255        0.19632        0.21388        0.22441        0.23134
        0.25100        0.26301        0.30580        0.32723        0.35323
        0.46717        0.48289        0.50700        0.51053        0.52399
        0.53450        0.54389        0.56335        0.58074        0.59032
        0.60464        0.79296        0.83785        0.86822        0.88103
        0.90636        0.92554        0.94596        0.96883        0.98207
        1.00330        1.02581        1.05246        1.06938        1.08801
        1.09774        1.11353        1.14429        1.17453        1.24798
        1.33318        1.36012        1.37120        1.40311        1.42335
        1.44758        1.45298        1.45856        1.47625        1.48391
        1.54189        1.59059        1.62244        1.63410        1.65024
        1.68803        1.72494        1.75788        1.79784        1.82964
        1.85664        1.87334        1.89889        2.06547        2.09449
        2.12124        2.13658        2.14017        2.14883        2.21426
        2.24685        2.26432        2.28463        2.29248        2.31913
        2.33949        2.41816        2.54893        2.59621        2.61848
        2.68397        2.70570        2.72632        2.74262        2.74689
        2.75603        2.81502        2.83419        2.93378        2.94225
        2.96199        3.15870        3.23604        3.27533        3.34633
        3.38350        3.38834        3.40315        3.40709        3.41271
        3.41991        3.45838        3.48892        3.54946        3.55672
        3.57141        3.58730        3.88222        3.91059        3.92394
        4.03321        4.04783        4.10394        4.15235        4.17199
        4.97228        5.13154        5.16279        5.27075        5.30166
        5.32023        5.32588        5.67712        5.73718        5.75304
        5.78109        5.94014        5.97515        5.99436        6.07243
       36.94981       51.41156       51.42984       51.44652       51.45825
 Time used in FCKEIG, thr_jaco:   7.67D-02  2.60D-02  1.83D-09
 CPU and wall times used in FCKEIG, THR_FCKEIG:   7.68D-02  2.60D-02  4.41D-07
 -----------------------------------------------------------------------------

 *** DIIS iteration number   11
 RDSUPM called. NFMAT, ISYMDM(1:NFMAT)                     1
                     1

 ITDIIS, energy, error norm, change in energy, scr.thr., difden:
@ DIIS iter.  11    -361.199945243        7.28308D-06   -2.16D-10  -20    F

 (DIIS_RED) Control Parameters C2DIIS =         F NEVC =    8


 (DIIS_RED) B matrix:

               Column   1     Column   2     Column   3     Column   4     Column   5     Column   6
       1       0.00000002
       2      -0.00000000     0.00000000
       3       0.00000000     0.00000000     0.00000000
       4       0.00000015    -0.00000003     0.00000006     0.00912716
       5       0.00000020     0.00000001    -0.00000004     0.00097941     0.00101494
       6       0.00000005    -0.00000000     0.00000002     0.00064317     0.00003516     0.00013255
       7       0.00000011     0.00000002    -0.00000000     0.00000676     0.00004960     0.00000056
       8       0.00000001     0.00000001     0.00000000     0.00000103     0.00000061     0.00000160

               Column   7     Column   8
       7       0.00000516
       8       0.00000033     0.00000015
    ==== End of matrix output ====

 DIIS C vector; C2DIIS = F, LAMBDA = -2.98D-11
   -0.031266   -0.112030    1.135385    0.000014   -0.000037   -0.000266    0.001542    0.006657
* Read MO coefficients from SIRIUS.RST with label "NEWORB  " and header info: 20Dec18  DIIS  11
      Virial theorem: -V/T =      2.003382
@    MULPOP   N      -0.81; H       0.43; H       0.38; H       0.42; H       0.34; O      -0.70; O      -0.73; O      -0.65; O      -0.67; H       0.42; 
@             H       0.35; H       0.39; H       0.42; H       0.35; H       0.34; H       0.32; H       0.40; 

 DIIS Fock eigenvalues in symmetry 1
      -20.66906      -20.65136      -20.64595      -20.62586      -15.70714
       -1.45523       -1.41974       -1.41598       -1.38654       -1.32437
       -0.81548       -0.80823       -0.80509       -0.80039       -0.77948
       -0.76277       -0.73613       -0.70957       -0.66293       -0.64547
       -0.63792       -0.62268       -0.60189       -0.59677       -0.57132
       -0.00931        0.02227        0.03392        0.05238        0.12336
        0.13196        0.14163        0.15559        0.16338        0.17596
        0.19255        0.19632        0.21388        0.22441        0.23134
        0.25100        0.26301        0.30580        0.32723        0.35323
        0.46717        0.48289        0.50700        0.51053        0.52399
        0.53450        0.54389        0.56335        0.58074        0.59032
        0.60464        0.79296        0.83785        0.86822        0.88103
        0.90636        0.92554        0.94596        0.96883        0.98207
        1.00330        1.02581        1.05246        1.06938        1.08800
        1.09774        1.11353        1.14429        1.17453        1.24798
        1.33318        1.36012        1.37120        1.40311        1.42335
        1.44757        1.45298        1.45856        1.47625        1.48391
        1.54189        1.59059        1.62244        1.63410        1.65024
        1.68803        1.72494        1.75788        1.79784        1.82964
        1.85664        1.87334        1.89889        2.06547        2.09449
        2.12124        2.13658        2.14017        2.14883        2.21426
        2.24685        2.26432        2.28463        2.29248        2.31913
        2.33949        2.41816        2.54893        2.59621        2.61848
        2.68397        2.70570        2.72632        2.74262        2.74689
        2.75603        2.81502        2.83419        2.93378        2.94224
        2.96199        3.15870        3.23604        3.27533        3.34633
        3.38350        3.38834        3.40315        3.40709        3.41271
        3.41991        3.45838        3.48892        3.54946        3.55672
        3.57141        3.58730        3.88222        3.91059        3.92394
        4.03321        4.04783        4.10394        4.15235        4.17199
        4.97228        5.13154        5.16279        5.27075        5.30166
        5.32022        5.32588        5.67712        5.73718        5.75304
        5.78109        5.94014        5.97515        5.99436        6.07243
       36.94981       51.41156       51.42983       51.44652       51.45825
 Time used in FCKEIG, thr_jaco:   7.73D-02  2.80D-02  3.32D-10
 CPU and wall times used in FCKEIG, THR_FCKEIG:   7.74D-02  2.80D-02  8.00D-08
 -----------------------------------------------------------------------------

 *** DIIS iteration number   12
 RDSUPM called. NFMAT, ISYMDM(1:NFMAT)                     1
                     1

 ITDIIS, energy, error norm, change in energy, scr.thr., difden:
@ DIIS iter.  12    -361.199945243        2.02568D-06   -4.09D-12  -20    F

 (DIIS_RED) Control Parameters C2DIIS =         F NEVC =    8


 (DIIS_RED) B matrix:

               Column   1     Column   2     Column   3     Column   4     Column   5     Column   6
       1       0.00000002
       2      -0.00000000     0.00000000
       3       0.00000000     0.00000000     0.00000000
       4       0.00000000     0.00000000     0.00000000     0.00000000
       5       0.00000020     0.00000001    -0.00000004    -0.00000001     0.00101494
       6       0.00000005    -0.00000000     0.00000002     0.00000000     0.00003516     0.00013255
       7       0.00000011     0.00000002    -0.00000000    -0.00000000     0.00004960     0.00000056
       8       0.00000001     0.00000001     0.00000000     0.00000000     0.00000061     0.00000160

               Column   7     Column   8
       7       0.00000516
       8       0.00000033     0.00000015
    ==== End of matrix output ====

 DIIS C vector; C2DIIS = F, LAMBDA = -3.32D-12
   -0.003340   -0.035143    0.023278    1.012134    0.000006   -0.000053    0.000027    0.003091
* Read MO coefficients from SIRIUS.RST with label "NEWORB  " and header info: 20Dec18  DIIS  12
      Virial theorem: -V/T =      2.003382
@    MULPOP   N      -0.81; H       0.43; H       0.38; H       0.42; H       0.34; O      -0.70; O      -0.73; O      -0.65; O      -0.67; H       0.42; 
@             H       0.35; H       0.39; H       0.42; H       0.35; H       0.34; H       0.32; H       0.40; 

 DIIS Fock eigenvalues in symmetry 1
      -20.66906      -20.65136      -20.64595      -20.62586      -15.70714
[...]
       3      -0.39655185     0.54097304     0.74168376
    ==== End of matrix output ====


 CCSD  Transition strength matrix for state nr. 13 of symmetry 1
 CCSD  excitation energy:15.13175134

 Gauge: length

               Column   1     Column   2     Column   3
       1     8.363817D-05  -1.802832D-05   7.531486D-05
       2    -1.802832D-05   3.872703D-06  -1.622911D-05
       3     7.531486D-05  -1.622911D-05   6.781790D-05
    ==== End of matrix output ====

 Principal values of diagonalized transition strength matrix:

             a.u.               
 1      -0.00000001
 2       0.00000000
 3       0.00015534

 Principal axis of diagonalized transition strength matrix:


               Column   1     Column   2     Column   3
       1       0.30541112    -0.60687925     0.73377219
       2       0.94550536     0.28463033    -0.15813028
       3      -0.11288783     0.74208029     0.66073685
    ==== End of matrix output ====


 CCSD   oscillator strength matrix for state nr. 13 of symmetry 1
 CCSD  excitation energy:15.13175134


               Column   1     Column   2     Column   3
       1     8.437280D-04  -1.818667D-04   7.597639D-04
       2    -1.818667D-04   3.906718D-05  -1.637166D-04
       3     7.597639D-04  -1.637166D-04   6.841357D-04
    ==== End of matrix output ====

 Principal values of diagonalized oscillator strength matrix:

             a.u.               
 1      -0.00000013
 2      -0.00000000
 3       0.00156706

 Principal axis of diagonalized oscillator strength matrix:


               Column   1     Column   2     Column   3
       1       0.30541112    -0.60687925     0.73377219
       2       0.94550536     0.28463033    -0.15813028
       3      -0.11288783     0.74208029     0.66073685
    ==== End of matrix output ====


 CCSD  Transition strength matrix for state nr. 14 of symmetry 1
 CCSD  excitation energy:15.14170855

 Gauge: length

               Column   1     Column   2     Column   3
       1     6.149772D-05  -2.079612D-06  -1.579176D-05
       2    -2.079612D-06   7.032340D-08   5.338368D-07
       3    -1.579176D-05   5.338368D-07   4.021264D-06
    ==== End of matrix output ====

 Principal values of diagonalized transition strength matrix:

             a.u.               
 1      -0.00000003
 2       0.00000000
 3       0.00006562

 Principal axis of diagonalized transition strength matrix:


               Column   1     Column   2     Column   3
       1       0.24850185     0.03244247     0.96808797
       2      -0.00295110     0.99945967    -0.03273627
       3       0.96862693    -0.00527810    -0.24846332
    ==== End of matrix output ====


 CCSD   oscillator strength matrix for state nr. 14 of symmetry 1
 CCSD  excitation energy:15.14170855


               Column   1     Column   2     Column   3
       1     6.207870D-04  -2.099259D-05  -1.594095D-04
       2    -2.099259D-05   7.098776D-07   5.388801D-06
       3    -1.594095D-04   5.388801D-06   4.059254D-05
    ==== End of matrix output ====

 Principal values of diagonalized oscillator strength matrix:

             a.u.               
 1      -0.00000032
 2       0.00000000
 3       0.00066241

 Principal axis of diagonalized oscillator strength matrix:


               Column   1     Column   2     Column   3
       1       0.24850185     0.03244247     0.96808797
       2      -0.00295110     0.99945967    -0.03273627
       3       0.96862693    -0.00527810    -0.24846332
    ==== End of matrix output ====


 CCSD  Transition strength matrix for state nr. 15 of symmetry 1
 CCSD  excitation energy:15.14722402

 Gauge: length

               Column   1     Column   2     Column   3
       1     5.037443D-05   3.213612D-05  -4.215054D-05
       2     3.213612D-05   2.049284D-05  -2.689062D-05
       3    -4.215054D-05  -2.689062D-05   3.526914D-05
    ==== End of matrix output ====

 Principal values of diagonalized transition strength matrix:

             a.u.               
 1      -0.00000001
 2      -0.00000000
 3       0.00010614

 Principal axis of diagonalized transition strength matrix:


               Column   1     Column   2     Column   3
       1      -0.27895556     0.66902233     0.68890705
       2       0.89474430    -0.07944451     0.43945558
       3       0.34873548     0.73898423    -0.57644243
    ==== End of matrix output ====


 CCSD   oscillator strength matrix for state nr. 15 of symmetry 1
 CCSD  excitation energy:15.14722402


               Column   1     Column   2     Column   3
       1     5.086885D-04   3.245154D-04  -4.256424D-04
       2     3.245154D-04   2.069397D-04  -2.715455D-04
       3    -4.256424D-04  -2.715455D-04   3.561530D-04
    ==== End of matrix output ====

 Principal values of diagonalized oscillator strength matrix:

             a.u.               
 1      -0.00000007
 2      -0.00000000
 3       0.00107185

 Principal axis of diagonalized oscillator strength matrix:


               Column   1     Column   2     Column   3
       1      -0.27895556     0.66902233     0.68890705
       2       0.89474430    -0.07944451     0.43945558
       3       0.34873548     0.73898423    -0.57644243
    ==== End of matrix output ====

  Total time for    135 linear response residues:      15.27 seconds.
  

 *******************************************************************************
 *******************************************************************************
 *                                                                             *
 *                                                                             *
 *                   SUMMARY OF COUPLED CLUSTER CALCULATION                    *
 *                                                                             *
 *                                                                             *
 *******************************************************************************
 *******************************************************************************

                                                                                
                                                                                
            Total SCF   energy:                  -361.1999452425                
            Total MP2   energy:                  -362.3118766691                
            Total CCSD  energy:                  -362.3514254951                
                                                                                
                                                                                
            Total SCF   energy:                  -361.1999452425                
            Total RSTAR energy:                  -362.3514254951                
            Total CCSD  energy:                  -362.3514723435                
                                                                                
                                                                                
            Total SCF   energy:                  -361.1999452425                
            Total RSTAR energy:                  -362.3514723435                
            Total CCSD  energy:                  -362.3514745275                
                                                                                
                                                                                
            Total SCF   energy:                  -361.1999452425                
            Total RSTAR energy:                  -362.3514745275                
            Total CCSD  energy:                  -362.3514746416                
                                                                                
                                                                                
            Total SCF   energy:                  -361.1999452425                
            Total RSTAR energy:                  -362.3514746416                
            Total CCSD  energy:                  -362.3514746479                
            CCSD Total  energy:                  -362.7688697532                
            CCSD E(PE-CC)     :                    -0.4126582933                
                                                                                
                                                                                
 +=============================================================================+
 |  sym. | Exci.  |        CCSD       Excitation energies            | ||T1||  |
 |(spin, |        +------------------------------------------------------------+
 | spat) |        |     Hartree    |       eV.      |     cm-1       |    %    |
 +=============================================================================+
 | ^1A   |    1   |    14.9032365  |     405.53770  |   3270882.314  |  88.50  |
 | ^1A   |    2   |    14.9511731  |     406.84212  |   3281403.175  |  88.76  |
 | ^1A   |    3   |    14.9693274  |     407.33612  |   3285387.574  |  88.50  |
 | ^1A   |    4   |    14.9883012  |     407.85242  |   3289551.849  |  88.57  |
 | ^1A   |    5   |    15.0005585  |     408.18596  |   3292242.015  |  88.22  |
 | ^1A   |    6   |    15.0140706  |     408.55364  |   3295207.579  |  88.25  |
 | ^1A   |    7   |    15.0227418  |     408.78960  |   3297110.693  |  88.30  |
 | ^1A   |    8   |    15.0380878  |     409.20718  |   3300478.738  |  88.46  |
 | ^1A   |    9   |    15.0723129  |     410.13850  |   3307990.281  |  88.57  |
 | ^1A   |   10   |    15.0910513  |     410.64840  |   3312102.897  |  88.94  |
 | ^1A   |   11   |    15.0980960  |     410.84009  |   3313649.015  |  88.31  |
 | ^1A   |   12   |    15.1065101  |     411.06905  |   3315495.715  |  88.44  |
 | ^1A   |   13   |    15.1317513  |     411.75590  |   3321035.516  |  88.00  |
 | ^1A   |   14   |    15.1417085  |     412.02685  |   3323220.872  |  87.90  |
 | ^1A   |   15   |    15.1472240  |     412.17693  |   3324431.377  |  87.92  |
 +=============================================================================+
                                                                                
                                                                                
     Total energies in Hartree:                                                 
             1 ^1A       -347.4529749291                                        
             2 ^1A       -347.4050383567                                        
             3 ^1A       -347.3868841011                                        
             4 ^1A       -347.3679102646                                        
             5 ^1A       -347.3556529665                                        
             6 ^1A       -347.3421408637                                        
             7 ^1A       -347.3334696401                                        
             8 ^1A       -347.3181236950                                        
             9 ^1A       -347.2838985883                                        
            10 ^1A       -347.2651601306                                        
            11 ^1A       -347.2581154962                                        
            12 ^1A       -347.2497013131                                        
            13 ^1A       -347.2244601233                                        
            14 ^1A       -347.2145029100                                        
            15 ^1A       -347.2089874409                                        
                                                                                
                                                                                
 +=============================================================================+
 |  sym. | Exci.  |        CCSD       Length   Gauge Oscillator Strength       |
 |(spin, |        +------------------------------------------------------------+
 | spat) |        | Dipole Strength(a.u.) | Oscillator strength  | Direction   |
 +=============================================================================+
 | ^1A   |    1   |        0.0002321      |      0.0023064       |  (Y,Z)      |
 | ^1A   |    2   |        0.0022451      |      0.0223778       |  (Y,Z)      |
 | ^1A   |    3   |        0.0015459      |      0.0154276       |  (Y,Z)      |
 | ^1A   |    4   |        0.0013260      |      0.0132502       |  (Y,Z)      |
 | ^1A   |    5   |        0.0005476      |      0.0054765       |  (Y,Z)      |
 | ^1A   |    6   |        0.0009834      |      0.0098430       |  (Y,Z)      |
 | ^1A   |    7   |        0.0009897      |      0.0099123       |  (Y,Z)      |
 | ^1A   |    8   |        0.0003111      |      0.0031194       |  (Y,Z)      |
 | ^1A   |    9   |        0.0013894      |      0.0139606       |  (Y,Z)      |
 | ^1A   |   10   |        0.0030034      |      0.0302162       |  (Y,Z)      |
 | ^1A   |   11   |        0.0008556      |      0.0086124       |  (Y,Z)      |
 | ^1A   |   12   |        0.0013067      |      0.0131597       |  (Y,Z)      |
 | ^1A   |   13   |        0.0001553      |      0.0015669       |  (Y,Z)      |
 | ^1A   |   14   |        0.0000656      |      0.0006621       |  (Y,Z)      |
 | ^1A   |   15   |        0.0001061      |      0.0010718       |  (Y,Z)      |
 +=============================================================================+

  1 a.u. =        27.21138 eV.  
  1 a.u. =    219474.62934 cm-1.
  

 *******************************************************************************
 *******************************************************************************
 *                                                                             *
 *                                                                             *
 *                      END OF COUPLED CLUSTER CALCULATION                     *
 *                                                                             *
 *                                                                             *
 *******************************************************************************
 *******************************************************************************


 CPU and wall time for CC :  233721.785   95252.689

 
     Date and time (Linux)  : Fri Dec 21 08:17:43 2018
     Host name              : s71p32.deic.sdu.dk                      


                      .-------------------------------------.
                      | End of Coupled Cluster Section (CC) |
                      `-------------------------------------'

  Total CPU  time used in DALTON:  64 hours 59 minutes 23 seconds
  Total wall time used in DALTON:  26 hours 30 minutes  5 seconds

 
     Date and time (Linux)  : Fri Dec 21 08:17:43 2018
     Host name              : s71p32.deic.sdu.dk                      
  

 +---------------------------------------------------------+ 
 | List of selected calculated molecular properties (a.u.) | 
 +---------------------------------------------------------+ 

  Properties are read from unit number                      4

 CCSD       properties :
 #  1 1 PE-CCSD  Ground state Energy =    -362.7688697532
 #  2 1 E(PE-CC) Ground state Energy =      -0.4126582933
 #  3 1 Sy: 1 Sp: 1 Exc:  1 E_tot:   -347.4529749291 w:     14.9032365308 E_grs:   -362.3562114599
 #  4 1 Exctot   Excited state Energy =    -347.4529749291
 #  5 1 Sy: 1 Sp: 1 Exc:  2 E_tot:   -347.4050383567 w:     14.9511731032 E_grs:   -362.3562114599
 #  6 1 Exctot   Excited state Energy =    -347.4050383567
 #  7 1 Sy: 1 Sp: 1 Exc:  3 E_tot:   -347.3868841011 w:     14.9693273588 E_grs:   -362.3562114599
 #  8 1 Exctot   Excited state Energy =    -347.3868841011
 #  9 1 Sy: 1 Sp: 1 Exc:  4 E_tot:   -347.3679102646 w:     14.9883011953 E_grs:   -362.3562114599
 # 10 1 Exctot   Excited state Energy =    -347.3679102646
 # 11 1 Sy: 1 Sp: 1 Exc:  5 E_tot:   -347.3556529665 w:     15.0005584934 E_grs:   -362.3562114599
 # 12 1 Exctot   Excited state Energy =    -347.3556529665
 # 13 1 Sy: 1 Sp: 1 Exc:  6 E_tot:   -347.3421408637 w:     15.0140705962 E_grs:   -362.3562114599
 # 14 1 Exctot   Excited state Energy =    -347.3421408637
 # 15 1 Sy: 1 Sp: 1 Exc:  7 E_tot:   -347.3334696401 w:     15.0227418198 E_grs:   -362.3562114599
 # 16 1 Exctot   Excited state Energy =    -347.3334696401
 # 17 1 Sy: 1 Sp: 1 Exc:  8 E_tot:   -347.3181236950 w:     15.0380877649 E_grs:   -362.3562114599
 # 18 1 Exctot   Excited state Energy =    -347.3181236950
 # 19 1 Sy: 1 Sp: 1 Exc:  9 E_tot:   -347.2838985883 w:     15.0723128716 E_grs:   -362.3562114599
 # 20 1 Exctot   Excited state Energy =    -347.2838985883
 # 21 1 Sy: 1 Sp: 1 Exc: 10 E_tot:   -347.2651601306 w:     15.0910513293 E_grs:   -362.3562114599
 # 22 1 Exctot   Excited state Energy =    -347.2651601306
 # 23 1 Sy: 1 Sp: 1 Exc: 11 E_tot:   -347.2581154962 w:     15.0980959637 E_grs:   -362.3562114599
 # 24 1 Exctot   Excited state Energy =    -347.2581154962
 # 25 1 Sy: 1 Sp: 1 Exc: 12 E_tot:   -347.2497013131 w:     15.1065101468 E_grs:   -362.3562114599
 # 26 1 Exctot   Excited state Energy =    -347.2497013131
 # 27 1 Sy: 1 Sp: 1 Exc: 13 E_tot:   -347.2244601233 w:     15.1317513366 E_grs:   -362.3562114599
 # 28 1 Exctot   Excited state Energy =    -347.2244601233
 # 29 1 Sy: 1 Sp: 1 Exc: 14 E_tot:   -347.2145029100 w:     15.1417085499 E_grs:   -362.3562114599
 # 30 1 Exctot   Excited state Energy =    -347.2145029100
 # 31 1 Sy: 1 Sp: 1 Exc: 15 E_tot:   -347.2089874409 w:     15.1472240190 E_grs:   -362.3562114599
 # 32 1 Exctot   Excited state Energy =    -347.2089874409
 # 33 1 |<O|XDIPLEN |i(14.903237)>| =     0.00503257
 # 35 1 |<O|XDIPLEN |i(14.951173)>| =     0.00006895
 # 37 1 |<O|XDIPLEN |i(14.969327)>| =     0.03186138
 # 39 1 |<O|XDIPLEN |i(14.988301)>| =     0.02472628
 # 41 1 |<O|XDIPLEN |i(15.000558)>| =     0.00015508
 # 43 1 |<O|XDIPLEN |i(15.014071)>| =     0.02942238
 # 45 1 |<O|XDIPLEN |i(15.022742)>| =     0.00341264
 # 47 1 |<O|XDIPLEN |i(15.038088)>| =     0.01141591
 # 49 1 |<O|XDIPLEN |i(15.072313)>| =     0.00303594
 # 51 1 |<O|XDIPLEN |i(15.091051)>| =     0.03976852
 # 53 1 |<O|XDIPLEN |i(15.098096)>| =     0.01876143
 # 55 1 |<O|XDIPLEN |i(15.106510)>| =     0.01733978
 # 57 1 |<O|XDIPLEN |i(15.131751)>| =     0.00914539
 # 59 1 |<O|XDIPLEN |i(15.141709)>| =     0.00784205
 # 61 1 |<O|XDIPLEN |i(15.147224)>| =     0.00709749
 # 63 1 |<O|YDIPLEN |i(14.903237)>| =     0.00018447
 # 65 1 |<O|YDIPLEN |i(14.951173)>| =     0.03038723
 # 67 1 |<O|YDIPLEN |i(14.969327)>| =     0.00220312
 # 69 1 |<O|YDIPLEN |i(14.988301)>| =     0.01992909
 # 71 1 |<O|YDIPLEN |i(15.000558)>| =     0.02111491
 # 73 1 |<O|YDIPLEN |i(15.014071)>| =     0.00846881
 # 75 1 |<O|YDIPLEN |i(15.022742)>| =     0.02513208
 # 77 1 |<O|YDIPLEN |i(15.038088)>| =     0.01328870
 # 79 1 |<O|YDIPLEN |i(15.072313)>| =     0.01925242
 # 81 1 |<O|YDIPLEN |i(15.091051)>| =     0.03562686
 # 83 1 |<O|YDIPLEN |i(15.098096)>| =     0.02171445
 # 85 1 |<O|YDIPLEN |i(15.106510)>| =     0.01694726
 # 87 1 |<O|YDIPLEN |i(15.131751)>| =     0.00196792
 # 89 1 |<O|YDIPLEN |i(15.141709)>| =     0.00026519
 # 91 1 |<O|YDIPLEN |i(15.147224)>| =     0.00452690
 # 93 1 |<O|ZDIPLEN |i(14.903237)>| =     0.01437973
 # 95 1 |<O|ZDIPLEN |i(14.951173)>| =     0.03635518
 # 97 1 |<O|ZDIPLEN |i(14.969327)>| =     0.02293295
 # 99 1 |<O|ZDIPLEN |i(14.988301)>| =     0.01781831
 #101 1 |<O|ZDIPLEN |i(15.000558)>| =     0.01008809
 #103 1 |<O|ZDIPLEN |i(15.014071)>| =     0.00678071
 #105 1 |<O|ZDIPLEN |i(15.022742)>| =     0.01861357
 #107 1 |<O|ZDIPLEN |i(15.038088)>| =     0.00205781
 #109 1 |<O|ZDIPLEN |i(15.072313)>| =     0.03177251
 #111 1 |<O|ZDIPLEN |i(15.091051)>| =     0.01235246
 #113 1 |<O|ZDIPLEN |i(15.098096)>| =     0.00566888
 #115 1 |<O|ZDIPLEN |i(15.106510)>| =     0.02681072
 #117 1 |<O|ZDIPLEN |i(15.131751)>| =     0.00823516
 #119 1 |<O|ZDIPLEN |i(15.141709)>| =     0.00200531
 #121 1 |<O|ZDIPLEN |i(15.147224)>| =     0.00593878

 THE_END   
