

     ************************************************************************
     *************** Dalton - An Electronic Structure Program ***************
     ************************************************************************

    This is output from DALTON release Dalton2017.alpha (2016)
         ( Web site: http://daltonprogram.org )

   ----------------------------------------------------------------------------

    NOTE:
     
    Dalton is an experimental code for the evaluation of molecular
    properties using (MC)SCF, DFT, CI, and CC wave functions.
    The authors accept no responsibility for the performance of
    the code or for the correctness of the results.
     
    The code (in whole or part) is provided under a licence and
    is not to be reproduced for further distribution without
    the written permission of the authors or their representatives.
     
    See the home page "http://daltonprogram.org" for further information.
     
    If results obtained with this code are published,
    the appropriate citations would be both of:
     
       K. Aidas, C. Angeli, K. L. Bak, V. Bakken, R. Bast,
       L. Boman, O. Christiansen, R. Cimiraglia, S. Coriani,
       P. Dahle, E. K. Dalskov, U. Ekstroem,
       T. Enevoldsen, J. J. Eriksen, P. Ettenhuber, B. Fernandez,
       L. Ferrighi, H. Fliegl, L. Frediani, K. Hald, A. Halkier,
       C. Haettig, H. Heiberg, T. Helgaker, A. C. Hennum,
       H. Hettema, E. Hjertenaes, S. Hoest, I.-M. Hoeyvik,
       M. F. Iozzi, B. Jansik, H. J. Aa. Jensen, D. Jonsson,
       P. Joergensen, J. Kauczor, S. Kirpekar,
       T. Kjaergaard, W. Klopper, S. Knecht, R. Kobayashi, H. Koch,
       J. Kongsted, A. Krapp, K. Kristensen, A. Ligabue,
       O. B. Lutnaes, J. I. Melo, K. V. Mikkelsen, R. H. Myhre,
       C. Neiss, C. B. Nielsen, P. Norman, J. Olsen,
       J. M. H. Olsen, A. Osted, M. J. Packer, F. Pawlowski,
       T. B. Pedersen, P. F. Provasi, S. Reine, Z. Rinkevicius,
       T. A. Ruden, K. Ruud, V. Rybkin, P. Salek, C. C. M. Samson,
       A. Sanchez de Meras, T. Saue, S. P. A. Sauer,
       B. Schimmelpfennig, K. Sneskov, A. H. Steindal,
       K. O. Sylvester-Hvid, P. R. Taylor, A. M. Teale,
       E. I. Tellgren, D. P. Tew, A. J. Thorvaldsen, L. Thoegersen,
       O. Vahtras, M. A. Watson, D. J. D. Wilson, M. Ziolkowski
       and H. Agren,
       "The Dalton quantum chemistry program system",
       WIREs Comput. Mol. Sci. 2014, 4:269–284 (doi: 10.1002/wcms.1172)
     
    and
     
       Dalton, a Molecular Electronic Structure Program,
       Release Dalton2017.alpha (2016), see http://daltonprogram.org
   ----------------------------------------------------------------------------

    Authors in alphabetical order (major contribution(s) in parenthesis):

  Kestutis Aidas,           Vilnius University,           Lithuania   (QM/MM)
  Celestino Angeli,         University of Ferrara,        Italy       (NEVPT2)
  Keld L. Bak,              UNI-C,                        Denmark     (AOSOPPA, non-adiabatic coupling, magnetic properties)
  Vebjoern Bakken,          University of Oslo,           Norway      (DALTON; geometry optimizer, symmetry detection)
  Radovan Bast,             UiT The Arctic U. of Norway,  Norway      (DALTON installation and execution frameworks)
  Pablo Baudin,             University of Valencia,       Spain       (Cholesky excitation energies)
  Linus Boman,              NTNU,                         Norway      (Cholesky decomposition and subsystems)
  Ove Christiansen,         Aarhus University,            Denmark     (CC module)
  Renzo Cimiraglia,         University of Ferrara,        Italy       (NEVPT2)
  Sonia Coriani,            University of Trieste,        Italy       (CC module, MCD in RESPONS)
  Janusz Cukras,            University of Trieste,        Italy       (MChD in RESPONS)
  Paal Dahle,               University of Oslo,           Norway      (Parallelization)
  Erik K. Dalskov,          UNI-C,                        Denmark     (SOPPA)
  Thomas Enevoldsen,        Univ. of Southern Denmark,    Denmark     (SOPPA)
  Janus J. Eriksen,         Aarhus University,            Denmark     (Polarizable embedding model, TDA)
  Rasmus Faber,             University of Copenhagen,     Denmark     (Vib.avg. NMR with SOPPA, parallel AO-SOPPA)
  Berta Fernandez,          U. of Santiago de Compostela, Spain       (doublet spin, ESR in RESPONS)
  Lara Ferrighi,            Aarhus University,            Denmark     (PCM Cubic response)
  Heike Fliegl,             University of Oslo,           Norway      (CCSD(R12))
  Luca Frediani,            UiT The Arctic U. of Norway,  Norway      (PCM)
  Bin Gao,                  UiT The Arctic U. of Norway,  Norway      (Gen1Int library)
  Christof Haettig,         Ruhr-University Bochum,       Germany     (CC module)
  Kasper Hald,              Aarhus University,            Denmark     (CC module)
  Asger Halkier,            Aarhus University,            Denmark     (CC module)
  Frederik Beyer Hansen,    University of Copenhagen,     Denmark     (Parallel AO-SOPPA)
  Erik D. Hedegaard,        Univ. of Southern Denmark,    Denmark     (Polarizable embedding model, QM/MM)
  Hanne Heiberg,            University of Oslo,           Norway      (geometry analysis, selected one-electron integrals)
  Trygve Helgaker,          University of Oslo,           Norway      (DALTON; ABACUS, ERI, DFT modules, London, and much more)
  Alf Christian Hennum,     University of Oslo,           Norway      (Parity violation)
  Hinne Hettema,            University of Auckland,       New Zealand (quadratic response in RESPONS; SIRIUS supersymmetry)
  Eirik Hjertenaes,         NTNU,                         Norway      (Cholesky decomposition)
  Pi A. B. Haase,           University of Copenhagen,     Denmark     (Triplet AO-SOPPA)
  Maria Francesca Iozzi,    University of Oslo,           Norway      (RPA)
  Brano Jansik              Technical Univ. of Ostrava    Czech Rep.  (DFT cubic response)
  Hans Joergen Aa. Jensen,  Univ. of Southern Denmark,    Denmark     (DALTON; SIRIUS, RESPONS, ABACUS modules, London, and much more)
  Dan Jonsson,              UiT The Arctic U. of Norway,  Norway      (cubic response in RESPONS module)
  Poul Joergensen,          Aarhus University,            Denmark     (RESPONS, ABACUS, and CC modules)
  Maciej Kaminski,          University of Warsaw,         Poland      (CPPh in RESPONS)
  Joanna Kauczor,           Linkoeping University,        Sweden      (Complex polarization propagator (CPP) module)
  Sheela Kirpekar,          Univ. of Southern Denmark,    Denmark     (Mass-velocity & Darwin integrals)
  Wim Klopper,              KIT Karlsruhe,                Germany     (R12 code in CC, SIRIUS, and ABACUS modules)
  Stefan Knecht,            ETH Zurich,                   Switzerland (Parallel CI and MCSCF)
  Rika Kobayashi,           Australian National Univ.,    Australia   (DIIS in CC, London in MCSCF)
  Henrik Koch,              NTNU,                         Norway      (CC module, Cholesky decomposition)
  Jacob Kongsted,           Univ. of Southern Denmark,    Denmark     (Polarizable embedding model, QM/MM)
  Andrea Ligabue,           University of Modena,         Italy       (CTOCD, AOSOPPA)
  Nanna H. List             Univ. of Southern Denmark,    Denmark     (Polarizable embedding model)
  Ola B. Lutnaes,           University of Oslo,           Norway      (DFT Hessian)
  Juan I. Melo,             University of Buenos Aires,   Argentina   (LRESC, Relativistic Effects on NMR Shieldings)
  Kurt V. Mikkelsen,        University of Copenhagen,     Denmark     (MC-SCRF and QM/MM)
  Rolf H. Myhre,            NTNU,                         Norway      (Cholesky, subsystems and ECC2)
  Christian Neiss,          Univ. Erlangen-Nuernberg,     Germany     (CCSD(R12))
  Christian B. Nielsen,     University of Copenhagen,     Denmark     (QM/MM)
  Patrick Norman,           Linkoeping University,        Sweden      (Cubic response and complex frequency response in RESPONS)
  Jeppe Olsen,              Aarhus University,            Denmark     (SIRIUS CI/density modules)
  Jogvan Magnus H. Olsen,   Univ. of Southern Denmark,    Denmark     (Polarizable embedding model, QM/MM)
  Anders Osted,             Copenhagen University,        Denmark     (QM/MM)
  Martin J. Packer,         University of Sheffield,      UK          (SOPPA)
  Filip Pawlowski,          Kazimierz Wielki University,  Poland      (CC3)
  Morten N. Pedersen,       Univ. of Southern Denmark,    Denmark     (Polarizable embedding model)
  Thomas B. Pedersen,       University of Oslo,           Norway      (Cholesky decomposition)
  Patricio F. Provasi,      University of Northeastern,   Argentina   (Analysis of coupling constants in localized orbitals)
  Zilvinas Rinkevicius,     KTH Stockholm,                Sweden      (open-shell DFT, ESR)
  Elias Rudberg,            KTH Stockholm,                Sweden      (DFT grid and basis info)
  Torgeir A. Ruden,         University of Oslo,           Norway      (Numerical derivatives in ABACUS)
  Kenneth Ruud,             UiT The Arctic U. of Norway,  Norway      (DALTON; ABACUS magnetic properties and much more)
  Pawel Salek,              KTH Stockholm,                Sweden      (DALTON; DFT code)
  Claire C. M. Samson       University of Karlsruhe       Germany     (Boys localization, r12 integrals in ERI)
  Alfredo Sanchez de Meras, University of Valencia,       Spain       (CC module, Cholesky decomposition)
  Trond Saue,               Paul Sabatier University,     France      (direct Fock matrix construction)
  Stephan P. A. Sauer,      University of Copenhagen,     Denmark     (SOPPA(CCSD), SOPPA prop., AOSOPPA, vibrational g-factors)
  Bernd Schimmelpfennig,    Forschungszentrum Karlsruhe,  Germany     (AMFI module)
  Kristian Sneskov,         Aarhus University,            Denmark     (Polarizable embedding model, QM/MM)
  Arnfinn H. Steindal,      UiT The Arctic U. of Norway,  Norway      (parallel QM/MM, Polarizable embedding model)
  Casper Steinmann,         Univ. of Southern Denmark,    Denmark     (QFIT, Polarizable embedding model)
  K. O. Sylvester-Hvid,     University of Copenhagen,     Denmark     (MC-SCRF)
  Peter R. Taylor,          VLSCI/Univ. of Melbourne,     Australia   (Symmetry handling ABACUS, integral transformation)
  Andrew M. Teale,          University of Nottingham,     England     (DFT-AC, DFT-D)
  David P. Tew,             University of Bristol,        England     (CCSD(R12))
  Olav Vahtras,             KTH Stockholm,                Sweden      (triplet response, spin-orbit, ESR, TDDFT, open-shell DFT)
  David J. Wilson,          La Trobe University,          Australia   (DFT Hessian and DFT magnetizabilities)
  Hans Agren,               KTH Stockholm,                Sweden      (SIRIUS module, RESPONS, MC-SCRF solvation model)
 --------------------------------------------------------------------------------

     Date and time (Linux)  : Thu Dec 20 05:47:38 2018
     Host name              : s71p32.deic.sdu.dk                      

 * Work memory size             :  2048000000 = 15.259 gigabytes.

 * Directories for basis set searches:
   1) /work/sdujk/reinholdt/ECP-Sonia/mixed-basis
   2) /gpfs/gss1/work/sdujk/reinholdt/Programs/dalton-private/pe-cvs/basis


Compilation information
-----------------------

 Who compiled             | reinholdt
 Host                     | fe1.deic.sdu.dk
 System                   | Linux-3.10.0-327.36.3.el7.x86_64
 CMake generator          | Unix Makefiles
 Processor                | x86_64
 64-bit integers          | ON
 MPI                      | OFF
 Fortran compiler         | /opt/sys/apps/intel/2018.05/compilers_and_librarie
                          | s_2018.3.222/linux/bin/intel64/ifort
 Fortran compiler version | ifort (IFORT) 18.0.3 20180410
 C compiler               | /opt/sys/apps/intel/2018.05/compilers_and_librarie
                          | s_2018.3.222/linux/bin/intel64/icc
 C compiler version       | icc (ICC) 18.0.3 20180410
 C++ compiler             | /opt/sys/apps/intel/2018.05/compilers_and_librarie
                          | s_2018.3.222/linux/bin/intel64/icpc
 C++ compiler version     | icpc (ICC) 18.0.3 20180410
 Static linking           | OFF
 Last Git revision        | 252a54078a0f9a1f0a59b3262fa4a57829155fe9
 Git branch               | pe/cc-cvs
 Configuration time       | 2018-12-09 12:09:40.474621


   Content of the .dal input file
 ----------------------------------

**DALTON
.RUN WAVE FUNCTIONS
.PEQM
**INTEGRALS
.DIPLEN
**WAVE FUNCTIONS
.CC
*PRINT
!To check the origin of excit
.PRINTL
   0 11
*SCF INP
.THRESH
1.0D-7
*CC INP
.CCSD
.THRLEQ
 1.0D-9
.THRENR
 1.0D-10
.FROIMP
4
0
.PRINT
 1
.MAX IT
 1200
.MAXRED
 1200
.MXLRV
1199
*PECC
*CCEXCI
.NCCEXC
 15
.CVSEPARA
1
1
*CCLRSD
.DIPOLE
**END OF DALTON INPUT


   Content of the .mol file
 ----------------------------

ATOMBASIS


Atomtypes=4 Charge=1 Nosymm Angstrom
   7.00000    1    Basis=6-311++G**
N          0.000000        0.000000        0.000000
   1.00000    4    Basis=6-311++G**
H         -0.986798        0.158192        0.209252
H          0.099905        0.008150       -1.036203
H          0.306136       -0.830246        0.456604
H          0.602571        0.778264        0.308939
   8.00000    4    Basis=6-311G**
O         -2.851387        0.280971       -0.395421
O          1.557405        2.243639        0.898477
O          0.027701        0.430319       -2.700204
O          2.086789       -1.795203        1.452611
   1.00000    8    Basis=6-311G**
H         -3.332311       -0.400096        0.142368
H         -3.514301        1.053183       -0.434516
H          1.432841        3.232280        1.052153
H          2.267997        2.159980        0.184844
H          0.867235        0.355314       -3.217866
H         -0.496919       -0.303537       -3.061090
H          1.766803       -2.435519        2.169424
H          2.362806       -0.979235        1.975913


       *******************************************************************
       *********** Output from DALTON general input processing ***********
       *******************************************************************

 --------------------------------------------------------------------------------
   Overall default print level:    0
   Print level for DALTON.STAT:    1

    HERMIT 1- and 2-electron integral sections will be executed
    "Old" integral transformation used (limited to max 255 basis functions)
    Wave function sections will be executed (SIRIUS module)
    Environment is modeled using polarizable embedding scheme (PE library)
 --------------------------------------------------------------------------------


   ****************************************************************************
   *************** Output of molecule and basis set information ***************
   ****************************************************************************


    The two title cards from your ".mol" input:
    ------------------------------------------------------------------------
 1:                                                                         
 2:                                                                         
    ------------------------------------------------------------------------

  Coordinates are entered in Angstrom and converted to atomic units.
          - Conversion factor : 1 bohr = 0.52917721 A

  Atomic type no.    1
  --------------------
  Nuclear charge:   7.00000
  Number of symmetry independent centers:    1
  Number of basis sets to read;    2
  The basis set is "6-311++G**" from the basis set library.
  Basis set file used for this atomic type with Z =   7 :
     "/gpfs/gss1/work/sdujk/reinholdt/Programs/dalton-private/pe-cvs/basis/6-311++G**"

  Info about the basis set file: your basis has no documentation.
  Basis set: 6-311++G**                                                                      

  Atomic type no.    2
  --------------------
  Nuclear charge:   1.00000
  Number of symmetry independent centers:    4
  Number of basis sets to read;    2
  The basis set is "6-311++G**" from the basis set library.
  Basis set file used for this atomic type with Z =   1 :
     "/gpfs/gss1/work/sdujk/reinholdt/Programs/dalton-private/pe-cvs/basis/6-311++G**"

  Info about the basis set file: your basis has no documentation.
  Basis set: 6-311++G**                                                                      

  Atomic type no.    3
  --------------------
  Nuclear charge:   8.00000
  Number of symmetry independent centers:    4
  Number of basis sets to read;    2
  The basis set is "6-311G**" from the basis set library.
  Basis set file used for this atomic type with Z =   8 :
     "/gpfs/gss1/work/sdujk/reinholdt/Programs/dalton-private/pe-cvs/basis/6-311G**"

  Info about the basis set file: your basis has no documentation.
  Basis set: 6-311G**                                                                        

  Atomic type no.    4
  --------------------
  Nuclear charge:   1.00000
  Number of symmetry independent centers:    8
  Number of basis sets to read;    2
  The basis set is "6-311G**" from the basis set library.
  Basis set file used for this atomic type with Z =   1 :
     "/gpfs/gss1/work/sdujk/reinholdt/Programs/dalton-private/pe-cvs/basis/6-311G**"

  Info about the basis set file: your basis has no documentation.
  Basis set: 6-311G**                                                                        


                         SYMGRP: Point group information
                         -------------------------------

@    Point group: C1 


                                 Isotopic Masses
                                 ---------------

                           N          14.003074
                           H           1.007825
                           H           1.007825
                           H           1.007825
                           H           1.007825
                           O          15.994915
                           O          15.994915
                           O          15.994915
                           O          15.994915
                           H           1.007825
                           H           1.007825
                           H           1.007825
                           H           1.007825
                           H           1.007825
                           H           1.007825
                           H           1.007825
                           H           1.007825

                       Total mass:    90.076634 amu
                       Natural abundance:  98.500 %

 Center-of-mass coordinates (a.u.):    0.304421    0.448288   -0.276269


  Atoms and basis sets
  --------------------

  Number of atom types :    4
  Total number of atoms:   17

  label    atoms   charge   prim   cont     basis
  ----------------------------------------------------------------------
  N           1    7.0000    35    22      [12s6p1d|5s4p1d]                                   
  H           4    1.0000     9     7      [6s1p|4s1p]                                        
  O           4    8.0000    31    18      [11s5p1d|4s3p1d]                                   
  H           8    1.0000     8     6      [5s1p|3s1p]                                        
  ----------------------------------------------------------------------
  total:     17   51.0000   259   170
  ----------------------------------------------------------------------
  Spherical harmonic basis used.

  Threshold for neglecting AO integrals:  1.00D-12


  Cartesian Coordinates (a.u.)
  ----------------------------

  Total number of coordinates:   51
  N       :     1  x   0.0000000000    2  y   0.0000000000    3  z   0.0000000000
  H       :     4  x  -1.8647779607    5  y   0.2989395552    6  z   0.3954289711
  H       :     7  x   0.1887930885    8  y   0.0154012679    9  z  -1.9581398799
  H       :    10  x   0.5785131970   11  y  -1.5689375564   12  z   0.8628565076
  H       :    13  x   1.1386941609   14  y   1.4707058129   15  z   0.5838100993
  O       :    16  x  -5.3883405064   17  y   0.5309582391   18  z  -0.7472373941
  O       :    19  x   2.9430689157   20  y   4.2398632334   21  z   1.6978754596
  O       :    22  x   0.0523473034   23  y   0.8131850564   24  z  -5.1026460416
  O       :    25  x   3.9434596906   26  y  -3.3924420088   27  z   2.7450369562
  H       :    28  x  -6.2971551533   29  y  -0.7560718637   30  z   0.2690365290
  H       :    31  x  -6.6410664108   32  y   1.9902274295   33  z  -0.8211162369
  H       :    34  x   2.7076770707   35  y   6.1081239593   36  z   1.9882810116
  H       :    37  x   4.2858931823   38  y   4.0817706355   39  z   0.3493045358
  H       :    40  x   1.6388366360   41  y   0.6714461484   42  z  -6.0808854469
  H       :    43  x  -0.9390408163   44  y  -0.5736017988   45  z  -5.7846217440
  H       :    46  x   3.3387737868   47  y  -4.6024638822   48  z   4.0996172090
  H       :    49  x   4.4650562265   50  y  -1.8504859620   51  z   3.7339344168

  Max    interatomic separation is    6.8441 Angstrom (   12.9335 Bohr)
  between atoms   16 and   11, "H     " and "H     ".

  Min HX interatomic separation is    0.9716 Angstrom (    1.8361 Bohr)

  Min YX interatomic separation is    2.7344 Angstrom (    5.1673 Bohr)


  Bond distances (Angstrom):
  --------------------------

                  atom 1     atom 2       distance
                  ------     ------       --------
  bond distance:  H          N            1.021069
  bond distance:  H          N            1.041040
  bond distance:  H          N            0.995748
  bond distance:  H          N            1.031615
  bond distance:  H          O            0.992148
  bond distance:  H          O            1.018477
  bond distance:  H          O            1.008238
  bond distance:  H          O            1.010550
  bond distance:  H          O            0.989150
  bond distance:  H          O            0.971602
  bond distance:  H          O            1.013023
  bond distance:  H          O            1.007886


  Bond angles (degrees):
  ----------------------

                  atom 1     atom 2     atom 3         angle
                  ------     ------     ------         -----
  bond angle:     H          N          H            107.188
  bond angle:     H          N          H            109.410
  bond angle:     H          N          H            112.721
  bond angle:     H          N          H            115.686
  bond angle:     H          N          H            103.658
  bond angle:     H          N          H            108.187
  bond angle:     H          O          H            103.048
  bond angle:     H          O          H            106.003
  bond angle:     H          O          H            101.924
  bond angle:     H          O          H            103.346




 Principal moments of inertia (u*A**2) and principal axes
 --------------------------------------------------------

   IA     278.928570          0.813318   -0.168257    0.556959
   IB     471.571523          0.378648    0.879879   -0.287122
   IC     508.953087         -0.441746    0.444413    0.779332


 Rotational constants
 --------------------

               A                   B                   C

           1811.8582           1071.6911            992.9776 MHz
            0.060437            0.035748            0.033122 cm-1


@  Nuclear repulsion energy :  197.867445360576 Hartree

  Reading potential input file for polarizable embedding calculation
 
    .------------------------------------------------.
    | Information from polarizable embedding library |
    `------------------------------------------------´

      Number of classical sites:    177

      Multipole moments upto 0th order.

      Dipole-dipole polarizabilities.

      Iterative solver for induced moments will be used
      with convergence threshold: 1.0E-08
      Total charge of classical region:    0.0000
 


                     .---------------------------------------.
                     | Starting in Integral Section (HERMIT) |
                     `---------------------------------------'



 ***************************************************************************************
 ****************** Output from **INTEGRALS input processing (HERMIT) ******************
 ***************************************************************************************



    *************************************************************************
    ****************** Output from HERMIT input processing ******************
    *************************************************************************


 Default print level:        1

 * Nuclear model: Point charge

 Calculation of one- and two-electron Hamiltonian integrals.

 The following one-electron property integrals are calculated as requested:
          - overlap integrals
          - dipole length integrals

 Center of mass  (bohr):      0.304421072511      0.448288259817     -0.276268787024
 Operator center (bohr):      0.000000000000      0.000000000000      0.000000000000
 Gauge origin    (bohr):      0.000000000000      0.000000000000      0.000000000000
 Dipole origin   (bohr):      0.000000000000      0.000000000000      0.000000000000


     ************************************************************************
     ************************** Output from HERINT **************************
     ************************************************************************



                      Nuclear contribution to dipole moments
                      --------------------------------------

                 au               Debye          C m (/(10**-30)

      x     15.00448023        38.13758224       127.21328111
      y     22.81756991        57.99647406       193.45541394
      z    -13.61826219       -34.61416763      -115.46043507


  Time used in POPOVLP    is       0.10 seconds
  Time used in QUADRUP    is       0.11 seconds

 Threshold for neglecting two-electron integrals:  1.00D-12
 HERMIT - Number of two-electron integrals written:    48489984 ( 45.9% )
 HERMIT - Megabytes written:                            555.235

  Time used in TWOINT     is      10.50 seconds
  Total CPU  time used in HERMIT:  11.04 seconds
  Total wall time used in HERMIT:   7.44 seconds


                        .----------------------------------.
                        | End of Integral Section (HERMIT) |
                        `----------------------------------'



                   .--------------------------------------------.
                   | Starting in Wave Function Section (SIRIUS) |
                   `--------------------------------------------'

 INPUT: SIMPLE =  F
NCCEXCI for singlet:   15
 CCSD_INPUT: core-val requested
 Requested number of core orbs per sym
                     1
 Indices of requested core orbs
                     1

 *** Output from Huckel module :

     Using EWMO model:          T
     Using EHT  model:          F
     Number of Huckel orbitals each symmetry:   37

 EWMO - Energy Weighted Maximum Overlap - is a Huckel type method,
        which normally is better than Extended Huckel Theory.
 Reference: Linderberg and Ohrn, Propagators in Quantum Chemistry (Wiley, 1973)

 Huckel EWMO eigenvalues for symmetry :  1
          -20.684757     -20.684307     -20.684301     -20.684188     -15.676261
           -1.810613      -1.610149      -1.595077      -1.580492      -1.500336
           -0.832820      -0.801479      -0.775950      -0.773554      -0.760814
           -0.755893      -0.739108      -0.690751      -0.673016      -0.666928
           -0.648013      -0.613096      -0.582336      -0.581044      -0.555657
           -0.262605      -0.247434      -0.244364      -0.236639      -0.185256
           -0.184603      -0.183498      -0.176039      -0.173574      -0.144605
           -0.139775      -0.136468

 **********************************************************************
 *SIRIUS* a direct, restricted step, second order MCSCF program       *
 **********************************************************************

 
     Date and time (Linux)  : Thu Dec 20 05:47:47 2018
     Host name              : s71p32.deic.sdu.dk                      

 Title lines from ".mol" input file:
                                                                             
                                                                             

 Print level on unit LUPRI =   2 is   0
 Print level on unit LUW4  =   2 is  11

@    (Integral direct) CC calculation.

@    This is a combination run starting with
@              a restricted, closed shell Hartree-Fock calculation


 Initial molecular orbitals are obtained according to
 ".MOSTART EWMO  " input option

@    QM part is embedded in an environment :

@         Model: PE

     Wave function specification
     ============================

     For the specification of the Coupled Cluster: see later.


     Wave function environment is modeled using the
     polarizable embedding model (PE library).

@    Wave function type        --- PE-CC ---
@    Number of closed shell electrons          50
@    Number of electrons in active shells       0
@    Total charge of the molecule               1

@    Spin multiplicity and 2 M_S                1         0
@    Total number of symmetries                 1 (point group: C1 )
@    Reference state symmetry                   1 (irrep name : A  )

     Orbital specifications
     ======================
@    Abelian symmetry species          All |    1
@                                          |  A  
                                       --- |  ---
@    Occupied SCF orbitals              25 |   25
@    Secondary orbitals                145 |  145
@    Total number of orbitals          170 |  170
@    Number of basis functions         170 |  170

     Optimization information
     ========================
@    Number of configurations                 1
@    Number of orbital rotations           3625
     ------------------------------------------
@    Total number of variables             3626

     Maximum number of Fock   iterations      0
     Maximum number of DIIS   iterations     60
     Maximum number of QC-SCF iterations     60
     Threshold for SCF convergence     1.00D-07


 Changes of defaults for CC:
 ---------------------------


 -Implicit frozen core calculation
 -Excitation energies calculated
 -One-photon absorption strengths will be calculated
 -Oscillator strengths calculated
  
* Read MO coefficients from SIRIUS.RST with label "NEWORB  " and header info: 20Dec18  REORTHO 


 ***********************************************
 ***** DIIS acceleration of SCF iterations *****
 ***********************************************

 C1-DIIS algorithm; max error vectors =    8
 -----------------------------------------------------------------------------

 *** DIIS iteration number    1
 RDSUPM called. NFMAT, ISYMDM(1:NFMAT)                     1
                     1

Calculating AOSUPINT
     (Precalculated AO two-electron integrals are transformed to P-supermatrix elements.
      Threshold for discarding integrals :  1.00D-12 )
  CPU  time used in FORMSUP    is   4.93 seconds
  WALL time used in FORMSUP    is   9.77 seconds

 ITDIIS, energy, error norm, change in energy, scr.thr., difden:
@ DIIS iter.   1    -360.205705676        4.04113D+00   -3.60D+02  -20    F

 (DIIS_RED) Control Parameters C2DIIS =         F NEVC =    1


 (DIIS_RED) B matrix:

               Column   1
       1      16.33074730
    ==== End of matrix output ====

 DIIS C vector; C2DIIS = F, LAMBDA = -1.63D+01
    1.000000
* Read MO coefficients from SIRIUS.RST with label "NEWORB  " and header info: 20Dec18  DIIS   1
      Virial theorem: -V/T =      2.003338
@    MULPOP   N      -0.09; H       0.19; H       0.22; H       0.20; H       0.22; O      -0.57; O      -0.56; O      -0.57; O      -0.60; H       0.32; 
@             H       0.31; H       0.30; H       0.32; H       0.32; H       0.33; H       0.32; H       0.33; 
   1  Level shift: doubly occupied orbital energies shifted by -2.00D-01

 DIIS Fock eigenvalues in symmetry 1
      -20.81155      -20.81131      -20.80687      -20.79552      -16.48444
       -1.74387       -1.63418       -1.62792       -1.61806       -1.60807
       -1.22917       -1.21387       -1.19620       -1.00538       -1.00030
       -0.99825       -0.97773       -0.88653       -0.87720       -0.87085
       -0.86356       -0.84071       -0.83497       -0.83134       -0.82402
       -0.03159        0.01955        0.02591        0.02992        0.09584
        0.10254        0.10545        0.12627        0.13353        0.15986
        0.17105        0.18128        0.18560        0.18984        0.20289
        0.20398        0.21752        0.22419        0.23040        0.31102
        0.41742        0.44328        0.45706        0.46730        0.48861
        0.50678        0.51658        0.52485        0.54763        0.54818
        0.56057        0.73383        0.74249        0.75070        0.76823
        0.85819        0.89318        0.91746        0.92997        0.95104
        0.97049        1.00006        1.01083        1.02210        1.04222
        1.05081        1.06217        1.08012        1.10805        1.13006
        1.26934        1.28624        1.33261        1.34800        1.37374
        1.38675        1.39923        1.40498        1.42300        1.43076
        1.45508        1.50430        1.52087        1.54995        1.57299
        1.58493        1.64220        1.67540        1.72839        1.75855
        1.75898        1.81029        1.83484        1.91297        1.99715
        2.05670        2.06538        2.09159        2.09377        2.11512
        2.16449        2.18095        2.20555        2.22486        2.23205
        2.25759        2.30340        2.48306        2.50851        2.53806
        2.55608        2.59809        2.63555        2.65906        2.67981
        2.69594        2.71263        2.72328        2.74201        2.76502
        2.76870        3.03341        3.04794        3.10636        3.11202
        3.32596        3.33873        3.36070        3.36356        3.39021
        3.39719        3.42239        3.43695        3.51447        3.52464
        3.55336        3.57881        3.86198        3.87079        3.88008
        3.89176        4.07797        4.11329        4.13317        4.15217
        4.74054        4.84152        4.88675        5.26712        5.28634
        5.29498        5.32626        5.66384        5.73148        5.75803
        5.81483        5.91386        5.94864        5.95124        5.99189
       36.43250       51.44348       51.46938       51.47475       51.49815
 Time used in FCKEIG, thr_jaco:   2.43D-01  7.10D-02  1.68D-04
 CPU and wall times used in FCKEIG, THR_FCKEIG:   2.43D-01  7.10D-02  4.04D-02
 -----------------------------------------------------------------------------

 *** DIIS iteration number    2
 RDSUPM called. NFMAT, ISYMDM(1:NFMAT)                     1
                     1

 ITDIIS, energy, error norm, change in energy, scr.thr., difden:
@ DIIS iter.   2    -361.119076058        1.17160D+00   -9.13D-01  -20    F

 (DIIS_RED) Control Parameters C2DIIS =         F NEVC =    2


 (DIIS_RED) B matrix:

               Column   1     Column   2
       1      16.33074730
       2       0.55557424     1.37264013
    ==== End of matrix output ====

 DIIS C vector; C2DIIS = F, LAMBDA = -1.33D+00
    0.049244    0.950756
* Read MO coefficients from SIRIUS.RST with label "NEWORB  " and header info: 20Dec18  DIIS   2
      Virial theorem: -V/T =      2.002626
@    MULPOP   N      -0.80; H       0.38; H       0.41; H       0.36; H       0.40; O      -0.57; O      -0.54; O      -0.52; O      -0.56; H       0.30; 
@             H       0.33; H       0.31; H       0.30; H       0.33; H       0.28; H       0.31; H       0.29; 
   2  Level shift: doubly occupied orbital energies shifted by -1.00D-01

 DIIS Fock eigenvalues in symmetry 1
      -20.78355      -20.77671      -20.75810      -20.75403      -15.63066
       -1.52727       -1.52492       -1.52125       -1.50533       -1.39235
       -0.89690       -0.89298       -0.88423       -0.87490       -0.87069
       -0.85640       -0.85454       -0.78859       -0.77014       -0.76084
       -0.75684       -0.72360       -0.71500       -0.70332       -0.69696
       -0.00153        0.03632        0.03984        0.05054        0.12863
        0.13825        0.14621        0.16410        0.17233        0.18830
        0.19473        0.20959        0.21883        0.22710        0.23309
        0.24300        0.27747        0.31098        0.32996        0.37841
        0.45356        0.48192        0.48942        0.52482        0.53934
        0.54175        0.56440        0.56849        0.58740        0.59971
        0.60384        0.81605        0.87594        0.90036        0.91730
        0.92044        0.93100        0.94287        0.97069        0.99018
        1.00922        1.02247        1.03709        1.06049        1.08329
        1.09174        1.12311        1.16425        1.19242        1.23223
        1.30090        1.33633        1.37702        1.39079        1.42476
        1.43296        1.45234        1.45415        1.47175        1.47538
        1.50456        1.56841        1.60525        1.62736        1.65150
        1.66104        1.75293        1.77528        1.79669        1.81414
        1.82154        1.87474        1.89949        2.03830        2.08373
        2.11117        2.12900        2.13559        2.16098        2.17925
        2.25797        2.26672        2.30579        2.31960        2.33070
        2.34736        2.41158        2.56062        2.57816        2.61000
        2.63182        2.71382        2.73046        2.74809        2.76659
        2.78579        2.79465        2.82160        2.87267        2.95669
        2.99901        3.22319        3.28316        3.30099        3.33703
        3.36384        3.37239        3.38217        3.40151        3.41888
        3.43963        3.49887        3.52120        3.53292        3.54137
        3.57490        3.60556        3.87505        3.88511        3.89362
        3.91272        4.08961        4.12428        4.14957        4.17229
        5.13152        5.22251        5.24503        5.25540        5.30445
        5.31742        5.33462        5.65412        5.72384        5.75146
        5.81767        5.91610        5.95022        5.95802        6.00965
       37.16798       51.37405       51.40491       51.41608       51.45351
 Time used in FCKEIG, thr_jaco:   1.47D-01  3.70D-02  4.86D-05
 CPU and wall times used in FCKEIG, THR_FCKEIG:   1.48D-01  3.70D-02  1.17D-02
 -----------------------------------------------------------------------------

 *** DIIS iteration number    3
 RDSUPM called. NFMAT, ISYMDM(1:NFMAT)                     1
                     1

 ITDIIS, energy, error norm, change in energy, scr.thr., difden:
@ DIIS iter.   3    -361.196293577        3.72048D-01   -7.72D-02  -20    F

 (DIIS_RED) Control Parameters C2DIIS =         F NEVC =    3


 (DIIS_RED) B matrix:

               Column   1     Column   2     Column   3
       1      16.33074730
       2       0.55557424     1.37264013
       3       0.82654053    -0.00658683     0.13841948
    ==== End of matrix output ====

 DIIS C vector; C2DIIS = F, LAMBDA = -9.37D-02
   -0.045667    0.091360    0.954307
* Read MO coefficients from SIRIUS.RST with label "NEWORB  " and header info: 20Dec18  DIIS   3
      Virial theorem: -V/T =      2.003237
@    MULPOP   N      -0.69; H       0.36; H       0.41; H       0.33; H       0.38; O      -0.65; O      -0.61; O      -0.58; O      -0.62; H       0.33; 
@             H       0.37; H       0.34; H       0.33; H       0.36; H       0.29; H       0.35; H       0.32; 
   3  Level shift: doubly occupied orbital energies shifted by -5.00D-02

 DIIS Fock eigenvalues in symmetry 1
      -20.69088      -20.67774      -20.66336      -20.65984      -15.78315
       -1.45903       -1.45287       -1.44975       -1.43737       -1.39015
       -0.87128       -0.86242       -0.83667       -0.81561       -0.80769
       -0.80048       -0.78896       -0.71839       -0.69939       -0.69183
       -0.68961       -0.64713       -0.63657       -0.62710       -0.62207
        0.00195        0.03970        0.04187        0.05527        0.13483
        0.14315        0.15049        0.16831        0.17677        0.19391
        0.19977        0.21558        0.22418        0.23303        0.23919
        0.24975        0.27690        0.31046        0.33017        0.37893
        0.46515        0.49241        0.49961        0.53085        0.54961
        0.55137        0.56986        0.57561        0.59628        0.60278
        0.61351        0.82019        0.87566        0.88862        0.91193
        0.92126        0.93605        0.95756        0.98805        1.00358
        1.02274        1.03891        1.05381        1.07672        1.09541
        1.10620        1.13799        1.16088        1.19400        1.23333
        1.31451        1.34933        1.39138        1.40462        1.44024
        1.44760        1.46778        1.47082        1.48665        1.49050
        1.51783        1.57819        1.61496        1.63737        1.66142
        1.66903        1.75794        1.78308        1.80650        1.82639
        1.83195        1.88467        1.91349        2.03648        2.09435
        2.12732        2.13978        2.15119        2.17767        2.18854
        2.27623        2.28474        2.31921        2.32413        2.32861
        2.35202        2.41629        2.57307        2.59158        2.62196
        2.64174        2.72177        2.74162        2.75892        2.77626
        2.79697        2.80623        2.82985        2.88100        2.92641
        2.96839        3.21926        3.26992        3.28370        3.34647
        3.37935        3.38875        3.40135        3.41755        3.44430
        3.45194        3.50158        3.52518        3.55906        3.56997
        3.60120        3.63626        3.90019        3.91235        3.92016
        3.94239        4.11749        4.15457        4.17728        4.20393
        5.05928        5.16123        5.20370        5.28940        5.31796
        5.32351        5.36503        5.68447        5.75676        5.78428
        5.85405        5.94837        5.98616        5.98963        6.04672
       36.97190       51.41684       51.45251       51.45830       51.50177
 Time used in FCKEIG, thr_jaco:   2.27D-01  5.70D-02  1.54D-05
 CPU and wall times used in FCKEIG, THR_FCKEIG:   2.28D-01  5.70D-02  3.72D-03
 -----------------------------------------------------------------------------

 *** DIIS iteration number    4
 RDSUPM called. NFMAT, ISYMDM(1:NFMAT)                     1
                     1

 ITDIIS, energy, error norm, change in energy, scr.thr., difden:
@ DIIS iter.   4    -361.206414052        9.22689D-02   -1.01D-02  -20    F

 (DIIS_RED) Control Parameters C2DIIS =         F NEVC =    4


 (DIIS_RED) B matrix:

               Column   1     Column   2     Column   3     Column   4
       1      16.33074730
       2       0.55557424     1.37264013
       3       0.82654053    -0.00658683     0.13841948
       4       0.05242771     0.07591434     0.00596776     0.00851355
    ==== End of matrix output ====

 DIIS C vector; C2DIIS = F, LAMBDA = -4.79D-03
   -0.000778   -0.055159   -0.009336    1.065273
* Read MO coefficients from SIRIUS.RST with label "NEWORB  " and header info: 20Dec18  DIIS   4
      Virial theorem: -V/T =      2.003326
@    MULPOP   N      -0.74; H       0.38; H       0.41; H       0.34; H       0.39; O      -0.66; O      -0.62; O      -0.59; O      -0.63; H       0.33; 
@             H       0.38; H       0.34; H       0.33; H       0.37; H       0.29; H       0.35; H       0.32; 
   4  Level shift: doubly occupied orbital energies shifted by -1.25D-02

 DIIS Fock eigenvalues in symmetry 1
      -20.66586      -20.65713      -20.63959      -20.63939      -15.71620
       -1.42607       -1.42043       -1.41783       -1.40460       -1.34162
       -0.82356       -0.81581       -0.79030       -0.78142       -0.77279
       -0.76623       -0.75523       -0.68315       -0.66469       -0.65633
       -0.65426       -0.61013       -0.60063       -0.59009       -0.58514
        0.00292        0.04012        0.04208        0.05566        0.13447
        0.14452        0.15160        0.16878        0.17852        0.19390
        0.19973        0.21548        0.22476        0.23258        0.23839
        0.24924        0.28151        0.31542        0.33545        0.38248
        0.46497        0.49312        0.49972        0.53228        0.54979
        0.55050        0.57162        0.57553        0.59610        0.60558
        0.61268        0.82506        0.88074        0.89515        0.91900
        0.92399        0.93689        0.95818        0.98813        1.00446
        1.02194        1.03812        1.05255        1.07570        1.09548
        1.10460        1.13537        1.16648        1.19578        1.23720
        1.31416        1.34995        1.39057        1.40457        1.43834
        1.44605        1.46595        1.46899        1.48477        1.48907
        1.51741        1.57816        1.61635        1.63836        1.66166
        1.67264        1.76350        1.78745        1.80711        1.82550
        1.83165        1.88429        1.91336        2.04242        2.09524
        2.12487        2.14061        2.14827        2.17691        2.19033
        2.27301        2.28216        2.31898        2.32703        2.33484
        2.35518        2.41892        2.57241        2.59026        2.62068
        2.64246        2.72562        2.74198        2.76296        2.77828
        2.79664        2.80584        2.83211        2.88755        2.93749
        2.97945        3.22622        3.27675        3.29126        3.35005
        3.38084        3.38614        3.39858        3.41591        3.44192
        3.44933        3.50294        3.52645        3.55602        3.56582
        3.59787        3.63235        3.89687        3.90815        3.91596
        3.93796        4.11413        4.15023        4.17374        4.19967
        5.07503        5.17637        5.21678        5.28132        5.31453
        5.31878        5.35746        5.67892        5.74975        5.77715
        5.84625        5.94179        5.97776        5.98233        6.03827
       37.00105       51.40466       51.43683       51.44409       51.48516
 Time used in FCKEIG, thr_jaco:   1.15D-01  2.90D-02  3.83D-06
 CPU and wall times used in FCKEIG, THR_FCKEIG:   1.15D-01  2.90D-02  9.23D-04
 -----------------------------------------------------------------------------

 *** DIIS iteration number    5
 RDSUPM called. NFMAT, ISYMDM(1:NFMAT)                     1
                     1

 ITDIIS, energy, error norm, change in energy, scr.thr., difden:
@ DIIS iter.   5    -361.207404988        3.13468D-02   -9.91D-04  -20    F

 (DIIS_RED) Control Parameters C2DIIS =         F NEVC =    5


 (DIIS_RED) B matrix:

               Column   1     Column   2     Column   3     Column   4     Column   5
       1      16.33074730
       2       0.55557424     1.37264013
       3       0.82654053    -0.00658683     0.13841948
       4       0.05242771     0.07591434     0.00596776     0.00851355
       5       0.02400138     0.00752271     0.00596185     0.00071849     0.00098262
    ==== End of matrix output ====

 DIIS C vector; C2DIIS = F, LAMBDA = -6.44D-04
    0.001129   -0.013108   -0.048384    0.142045    0.918319
* Read MO coefficients from SIRIUS.RST with label "NEWORB  " and header info: 20Dec18  DIIS   5
      Virial theorem: -V/T =      2.002906
@    MULPOP   N      -0.73; H       0.37; H       0.41; H       0.34; H       0.39; O      -0.67; O      -0.63; O      -0.60; O      -0.65; H       0.34; 
@             H       0.39; H       0.35; H       0.34; H       0.37; H       0.30; H       0.36; H       0.33; 

 DIIS Fock eigenvalues in symmetry 1
      -20.64736      -20.63613      -20.62046      -20.61782      -15.69927
       -1.41138       -1.40471       -1.40232       -1.38978       -1.32725
       -0.80925       -0.80154       -0.77587       -0.76740       -0.75814
       -0.75131       -0.74114       -0.66893       -0.64983       -0.64132
       -0.63974       -0.59465       -0.58439       -0.57437       -0.56880
        0.00330        0.04041        0.04225        0.05602        0.13481
        0.14505        0.15210        0.16921        0.17914        0.19434
        0.20011        0.21594        0.22524        0.23299        0.23869
        0.24966        0.28262        0.31655        0.33681        0.38346
        0.46568        0.49392        0.50057        0.53297        0.55046
        0.55119        0.57225        0.57617        0.59682        0.60642
        0.61342        0.82611        0.88221        0.89656        0.92043
        0.92581        0.93868        0.96018        0.99017        1.00616
        1.02343        1.03991        1.05429        1.07732        1.09709
        1.10613        1.13682        1.16800        1.19715        1.23874
        1.31550        1.35155        1.39163        1.40588        1.43892
        1.44680        1.46653        1.46999        1.48538        1.49000
        1.51842        1.57921        1.61706        1.63937        1.66236
        1.67366        1.76467        1.78858        1.80773        1.82581
        1.83207        1.88456        1.91393        2.04371        2.09630
        2.12563        2.14174        2.14902        2.17818        2.19162
        2.27381        2.28335        2.31985        2.32849        2.33622
        2.35667        2.42016        2.57272        2.59054        2.62089
        2.64313        2.72645        2.74220        2.76392        2.77889
        2.79684        2.80614        2.83292        2.88876        2.93924
        2.98122        3.22789        3.27911        3.29359        3.35242
        3.38322        3.38915        3.40090        3.41842        3.44477
        3.45227        3.50573        3.52947        3.55832        3.56888
        3.60024        3.63568        3.89915        3.91091        3.91867
        3.94130        4.11670        4.15344        4.17644        4.20323
        5.07762        5.17903        5.21962        5.28635        5.31825
        5.32263        5.36282        5.68235        5.75393        5.78145
        5.85126        5.94502        5.98213        5.98587        6.04306
       37.00539       51.41060       51.44481       51.45106       51.49409
 Time used in FCKEIG, thr_jaco:   1.08D-01  2.70D-02  1.30D-06
 CPU and wall times used in FCKEIG, THR_FCKEIG:   1.08D-01  2.70D-02  3.13D-04
 -----------------------------------------------------------------------------

 *** DIIS iteration number    6
 RDSUPM called. NFMAT, ISYMDM(1:NFMAT)                     1
                     1

 ITDIIS, energy, error norm, change in energy, scr.thr., difden:
@ DIIS iter.   6    -361.207497770        1.11081D-02   -9.28D-05  -20    F

 (DIIS_RED) Control Parameters C2DIIS =         F NEVC =    6


 (DIIS_RED) B matrix:

               Column   1     Column   2     Column   3     Column   4     Column   5     Column   6
       1      16.33074730
       2       0.55557424     1.37264013
       3       0.82654053    -0.00658683     0.13841948
       4       0.05242771     0.07591434     0.00596776     0.00851355
       5       0.02400138     0.00752271     0.00596185     0.00071849     0.00098262
       6      -0.00456379    -0.00004931     0.00080306     0.00060699     0.00002152     0.00012339
    ==== End of matrix output ====

 DIIS C vector; C2DIIS = F, LAMBDA = -3.66D-05
    0.000785    0.006826   -0.008253   -0.138025    0.093942    1.044727
* Read MO coefficients from SIRIUS.RST with label "NEWORB  " and header info: 20Dec18  DIIS   6
      Virial theorem: -V/T =      2.003177
@    MULPOP   N      -0.72; H       0.37; H       0.41; H       0.33; H       0.39; O      -0.67; O      -0.63; O      -0.60; O      -0.65; H       0.34; 
@             H       0.39; H       0.35; H       0.34; H       0.37; H       0.30; H       0.36; H       0.33; 

 DIIS Fock eigenvalues in symmetry 1
      -20.64884      -20.63848      -20.62227      -20.62018      -15.70139
       -1.41174       -1.40536       -1.40299       -1.39030       -1.32781
       -0.80978       -0.80212       -0.77641       -0.76785       -0.75880
       -0.75196       -0.74176       -0.66956       -0.65075       -0.64222
       -0.64060       -0.59471       -0.58477       -0.57454       -0.56918
        0.00334        0.04040        0.04223        0.05600        0.13468
        0.14502        0.15207        0.16911        0.17909        0.19421
        0.20002        0.21581        0.22516        0.23286        0.23853
        0.24952        0.28256        0.31637        0.33656        0.38326
        0.46550        0.49373        0.50035        0.53280        0.55023
        0.55093        0.57207        0.57596        0.59660        0.60631
        0.61316        0.82605        0.88184        0.89621        0.92011
        0.92554        0.93853        0.95997        0.98983        1.00590
        1.02307        1.03952        1.05393        1.07691        1.09673
        1.10569        1.13633        1.16770        1.19682        1.23839
        1.31526        1.35120        1.39128        1.40552        1.43856
        1.44652        1.46614        1.46964        1.48501        1.48963
        1.51807        1.57886        1.61683        1.63906        1.66203
        1.67346        1.76449        1.78841        1.80746        1.82549
        1.83179        1.88424        1.91368        2.04351        2.09592
        2.12519        2.14137        2.14850        2.17773        2.19135
        2.27341        2.28284        2.31936        2.32817        2.33600
        2.35636        2.41978        2.57239        2.59016        2.62049
        2.64281        2.72626        2.74190        2.76382        2.77865
        2.79652        2.80582        2.83263        2.88868        2.93870
        2.98066        3.22757        3.27837        3.29290        3.35183
        3.38262        3.38834        3.40036        3.41775        3.44401
        3.45149        3.50498        3.52868        3.55781        3.56807
        3.59956        3.63484        3.89862        3.91012        3.91789
        3.94044        4.11611        4.15260        4.17570        4.20234
        5.07661        5.17802        5.21865        5.28512        5.31736
        5.32174        5.36156        5.68154        5.75278        5.78027
        5.84997        5.94416        5.98084        5.98478        6.04176
       37.00330       51.40913       51.44263       51.44913       51.49175
 Time used in FCKEIG, thr_jaco:   1.08D-01  2.70D-02  4.61D-07
 CPU and wall times used in FCKEIG, THR_FCKEIG:   1.08D-01  2.70D-02  1.11D-04
 -----------------------------------------------------------------------------

 *** DIIS iteration number    7
 RDSUPM called. NFMAT, ISYMDM(1:NFMAT)                     1
                     1

 ITDIIS, energy, error norm, change in energy, scr.thr., difden:
@ DIIS iter.   7    -361.207511901        2.29793D-03   -1.41D-05  -20    F

 (DIIS_RED) Control Parameters C2DIIS =         F NEVC =    7


 (DIIS_RED) B matrix:

               Column   1     Column   2     Column   3     Column   4     Column   5     Column   6
       1      16.33074730
       2       0.55557424     1.37264013
       3       0.82654053    -0.00658683     0.13841948
       4       0.05242771     0.07591434     0.00596776     0.00851355
       5       0.02400138     0.00752271     0.00596185     0.00071849     0.00098262
       6      -0.00456379    -0.00004931     0.00080306     0.00060699     0.00002152     0.00012339
       7       0.00030644     0.00020384    -0.00000762     0.00000444     0.00004981     0.00000176

               Column   7
       7       0.00000528
    ==== End of matrix output ====

 DIIS C vector; C2DIIS = F, LAMBDA = -1.24D-06
   -0.000251   -0.000835    0.005504    0.023497   -0.095265   -0.151690    1.219041
* Read MO coefficients from SIRIUS.RST with label "NEWORB  " and header info: 20Dec18  DIIS   7
      Virial theorem: -V/T =      2.003117
@    MULPOP   N      -0.72; H       0.37; H       0.41; H       0.33; H       0.39; O      -0.67; O      -0.63; O      -0.60; O      -0.65; H       0.34; 
@             H       0.39; H       0.35; H       0.34; H       0.37; H       0.30; H       0.36; H       0.33; 

 DIIS Fock eigenvalues in symmetry 1
      -20.64866      -20.63810      -20.62205      -20.61990      -15.70094
       -1.41162       -1.40521       -1.40281       -1.39017       -1.32759
       -0.80960       -0.80194       -0.77623       -0.76779       -0.75867
       -0.75185       -0.74168       -0.66956       -0.65070       -0.64216
       -0.64057       -0.59455       -0.58454       -0.57435       -0.56898
        0.00338        0.04043        0.04226        0.05603        0.13471
        0.14508        0.15212        0.16915        0.17915        0.19424
        0.20005        0.21585        0.22520        0.23289        0.23855
        0.24955        0.28265        0.31648        0.33668        0.38337
        0.46556        0.49380        0.50043        0.53287        0.55029
        0.55098        0.57213        0.57602        0.59665        0.60640
        0.61320        0.82618        0.88198        0.89636        0.92026
        0.92567        0.93863        0.96010        0.98994        1.00600
        1.02317        1.03962        1.05403        1.07701        1.09681
        1.10576        1.13640        1.16785        1.19694        1.23853
        1.31535        1.35131        1.39134        1.40561        1.43858
        1.44655        1.46616        1.46967        1.48504        1.48968
        1.51813        1.57893        1.61689        1.63913        1.66209
        1.67357        1.76463        1.78853        1.80751        1.82551
        1.83183        1.88426        1.91371        2.04365        2.09600
        2.12522        2.14146        2.14854        2.17779        2.19145
        2.27344        2.28289        2.31939        2.32831        2.33615
        2.35647        2.41988        2.57241        2.59017        2.62050
        2.64286        2.72635        2.74192        2.76391        2.77871
        2.79653        2.80583        2.83270        2.88883        2.93892
        2.98088        3.22774        3.27858        3.29310        3.35199
        3.38277        3.38852        3.40047        3.41789        3.44415
        3.45164        3.50518        3.52886        3.55792        3.56824
        3.59969        3.63499        3.89871        3.91025        3.91802
        3.94057        4.11624        4.15278        4.17584        4.20249
        5.07691        5.17831        5.21892        5.28537        5.31754
        5.32191        5.36176        5.68167        5.75297        5.78047
        5.85015        5.94428        5.98105        5.98493        6.04193
       37.00375       51.40931       51.44296       51.44939       51.49203
 Time used in FCKEIG, thr_jaco:   1.86D-01  4.70D-02  9.54D-08
 CPU and wall times used in FCKEIG, THR_FCKEIG:   1.86D-01  4.70D-02  2.30D-05
 -----------------------------------------------------------------------------

 *** DIIS iteration number    8
 RDSUPM called. NFMAT, ISYMDM(1:NFMAT)                     1
                     1

 ITDIIS, energy, error norm, change in energy, scr.thr., difden:
@ DIIS iter.   8    -361.207512488        3.57462D-04   -5.86D-07  -20    F

 (DIIS_RED) Control Parameters C2DIIS =         F NEVC =    8


 (DIIS_RED) B matrix:

               Column   1     Column   2     Column   3     Column   4     Column   5     Column   6
       1      16.33074730
       2       0.55557424     1.37264013
       3       0.82654053    -0.00658683     0.13841948
       4       0.05242771     0.07591434     0.00596776     0.00851355
       5       0.02400138     0.00752271     0.00596185     0.00071849     0.00098262
       6      -0.00456379    -0.00004931     0.00080306     0.00060699     0.00002152     0.00012339
       7       0.00030644     0.00020384    -0.00000762     0.00000444     0.00004981     0.00000176
       8       0.00012169    -0.00005577     0.00001036     0.00000114     0.00000042     0.00000155

               Column   7     Column   8
       7       0.00000528
       8       0.00000037     0.00000013
    ==== End of matrix output ====

 DIIS C vector; C2DIIS = F, LAMBDA = -6.12D-08
    0.000016    0.000052   -0.000855   -0.001275    0.016902   -0.002067   -0.236225    1.223453
* Read MO coefficients from SIRIUS.RST with label "NEWORB  " and header info: 20Dec18  DIIS   8
      Virial theorem: -V/T =      2.003133
@    MULPOP   N      -0.72; H       0.37; H       0.41; H       0.33; H       0.39; O      -0.67; O      -0.63; O      -0.60; O      -0.65; H       0.34; 
@             H       0.39; H       0.35; H       0.34; H       0.37; H       0.30; H       0.36; H       0.33; 

 DIIS Fock eigenvalues in symmetry 1
      -20.64864      -20.63816      -20.62206      -20.61987      -15.70097
       -1.41161       -1.40520       -1.40282       -1.39017       -1.32760
       -0.80961       -0.80195       -0.77625       -0.76777       -0.75867
       -0.75184       -0.74167       -0.66958       -0.65073       -0.64219
       -0.64059       -0.59454       -0.58456       -0.57435       -0.56898
        0.00338        0.04043        0.04226        0.05603        0.13471
        0.14508        0.15212        0.16915        0.17915        0.19423
        0.20005        0.21585        0.22520        0.23289        0.23855
        0.24955        0.28265        0.31647        0.33667        0.38336
        0.46556        0.49380        0.50042        0.53286        0.55029
        0.55098        0.57213        0.57602        0.59664        0.60640
        0.61320        0.82617        0.88197        0.89635        0.92025
        0.92567        0.93863        0.96009        0.98994        1.00600
        1.02316        1.03963        1.05403        1.07700        1.09681
        1.10575        1.13639        1.16784        1.19693        1.23851
        1.31535        1.35131        1.39133        1.40560        1.43858
        1.44655        1.46616        1.46967        1.48503        1.48967
        1.51813        1.57892        1.61688        1.63912        1.66208
        1.67356        1.76461        1.78852        1.80751        1.82551
        1.83182        1.88426        1.91371        2.04364        2.09600
        2.12522        2.14145        2.14853        2.17779        2.19145
        2.27343        2.28288        2.31939        2.32829        2.33614
        2.35646        2.41987        2.57241        2.59017        2.62049
        2.64285        2.72634        2.74192        2.76391        2.77871
        2.79653        2.80583        2.83269        2.88881        2.93890
        2.98086        3.22773        3.27856        3.29308        3.35199
        3.38276        3.38850        3.40047        3.41788        3.44415
        3.45163        3.50516        3.52886        3.55792        3.56822
        3.59968        3.63499        3.89871        3.91024        3.91801
        3.94057        4.11624        4.15276        4.17583        4.20250
        5.07688        5.17828        5.21890        5.28534        5.31753
        5.32191        5.36177        5.68168        5.75295        5.78045
        5.85016        5.94429        5.98103        5.98492        6.04194
       37.00371       51.40933       51.44291       51.44937       51.49206
 Time used in FCKEIG, thr_jaco:   1.62D-01  4.00D-02  1.48D-08
 CPU and wall times used in FCKEIG, THR_FCKEIG:   1.62D-01  4.10D-02  3.57D-06
 -----------------------------------------------------------------------------

 *** DIIS iteration number    9
 RDSUPM called. NFMAT, ISYMDM(1:NFMAT)                     1
                     1

 ITDIIS, energy, error norm, change in energy, scr.thr., difden:
@ DIIS iter.   9    -361.207512505        9.81542D-05   -1.77D-08  -20    F

 (DIIS_RED) Control Parameters C2DIIS =         F NEVC =    8


 (DIIS_RED) B matrix:

               Column   1     Column   2     Column   3     Column   4     Column   5     Column   6
       1       0.00000001
       2       0.00001070     1.37264013
       3      -0.00000286    -0.00658683     0.13841948
       4       0.00000026     0.07591434     0.00596776     0.00851355
       5       0.00000029     0.00752271     0.00596185     0.00071849     0.00098262
       6      -0.00000003    -0.00004931     0.00080306     0.00060699     0.00002152     0.00012339
       7       0.00000008     0.00020384    -0.00000762     0.00000444     0.00004981     0.00000176
       8       0.00000001    -0.00005577     0.00001036     0.00000114     0.00000042     0.00000155

               Column   7     Column   8
       7       0.00000528
       8       0.00000037     0.00000013
    ==== End of matrix output ====

 DIIS C vector; C2DIIS = F, LAMBDA = -7.43D-09
    0.991998    0.000016   -0.000107   -0.000571    0.002945    0.003369   -0.046967    0.049316
* Read MO coefficients from SIRIUS.RST with label "NEWORB  " and header info: 20Dec18  DIIS   9
      Virial theorem: -V/T =      2.003133
@    MULPOP   N      -0.72; H       0.37; H       0.41; H       0.33; H       0.39; O      -0.67; O      -0.63; O      -0.60; O      -0.65; H       0.34; 
@             H       0.39; H       0.35; H       0.34; H       0.37; H       0.30; H       0.36; H       0.33; 

 DIIS Fock eigenvalues in symmetry 1
      -20.64865      -20.63812      -20.62205      -20.61990      -15.70096
       -1.41161       -1.40521       -1.40281       -1.39017       -1.32760
       -0.80961       -0.80195       -0.77624       -0.76777       -0.75866
       -0.75184       -0.74167       -0.66959       -0.65072       -0.64219
       -0.64060       -0.59454       -0.58454       -0.57434       -0.56898
        0.00338        0.04043        0.04226        0.05603        0.13471
        0.14508        0.15212        0.16915        0.17915        0.19423
        0.20005        0.21585        0.22520        0.23289        0.23855
        0.24955        0.28265        0.31647        0.33667        0.38336
        0.46556        0.49380        0.50043        0.53286        0.55029
        0.55098        0.57213        0.57602        0.59664        0.60640
        0.61320        0.82617        0.88197        0.89635        0.92026
        0.92567        0.93863        0.96010        0.98994        1.00600
        1.02317        1.03963        1.05403        1.07700        1.09681
        1.10575        1.13640        1.16784        1.19693        1.23852
        1.31535        1.35131        1.39134        1.40560        1.43858
        1.44655        1.46616        1.46966        1.48503        1.48967
        1.51813        1.57892        1.61689        1.63912        1.66208
        1.67356        1.76462        1.78852        1.80751        1.82551
        1.83182        1.88426        1.91371        2.04364        2.09600
        2.12522        2.14145        2.14853        2.17779        2.19145
        2.27343        2.28289        2.31939        2.32830        2.33614
        2.35646        2.41987        2.57241        2.59017        2.62050
        2.64285        2.72634        2.74192        2.76391        2.77871
        2.79653        2.80583        2.83270        2.88881        2.93890
        2.98086        3.22773        3.27857        3.29309        3.35199
        3.38277        3.38851        3.40047        3.41788        3.44415
        3.45163        3.50517        3.52885        3.55792        3.56824
        3.59969        3.63499        3.89871        3.91025        3.91802
        3.94057        4.11624        4.15277        4.17584        4.20249
        5.07689        5.17829        5.21890        5.28536        5.31753
        5.32191        5.36175        5.68167        5.75296        5.78046
        5.85015        5.94428        5.98105        5.98493        6.04193
       37.00372       51.40932       51.44295       51.44938       51.49203
 Time used in FCKEIG, thr_jaco:   1.70D-01  4.20D-02  4.08D-09
 CPU and wall times used in FCKEIG, THR_FCKEIG:   1.70D-01  4.20D-02  9.82D-07
 -----------------------------------------------------------------------------

 *** DIIS iteration number   10
 RDSUPM called. NFMAT, ISYMDM(1:NFMAT)                     1
                     1

 ITDIIS, energy, error norm, change in energy, scr.thr., difden:
@ DIIS iter.  10    -361.207512506        4.19026D-05   -8.33D-10  -20    F

 (DIIS_RED) Control Parameters C2DIIS =         F NEVC =    8


 (DIIS_RED) B matrix:

               Column   1     Column   2     Column   3     Column   4     Column   5     Column   6
       1       0.00000001
       2      -0.00000000     0.00000000
       3      -0.00000286    -0.00000064     0.13841948
       4       0.00000026     0.00000003     0.00596776     0.00851355
       5       0.00000029    -0.00000006     0.00596185     0.00071849     0.00098262
       6      -0.00000003     0.00000001     0.00080306     0.00060699     0.00002152     0.00012339
       7       0.00000008     0.00000000    -0.00000762     0.00000444     0.00004981     0.00000176
       8       0.00000001     0.00000001     0.00001036     0.00000114     0.00000042     0.00000155

               Column   7     Column   8
       7       0.00000528
       8       0.00000037     0.00000013
    ==== End of matrix output ====

 DIIS C vector; C2DIIS = F, LAMBDA = -3.95D-10
    0.254129    0.872842    0.000059   -0.000075   -0.001054    0.001716    0.014871   -0.142488
* Read MO coefficients from SIRIUS.RST with label "NEWORB  " and header info: 20Dec18  DIIS  10
      Virial theorem: -V/T =      2.003133
@    MULPOP   N      -0.72; H       0.37; H       0.41; H       0.33; H       0.39; O      -0.67; O      -0.63; O      -0.60; O      -0.65; H       0.34; 
@             H       0.39; H       0.35; H       0.34; H       0.37; H       0.30; H       0.36; H       0.33; 

 DIIS Fock eigenvalues in symmetry 1
      -20.64865      -20.63813      -20.62205      -20.61989      -15.70096
       -1.41161       -1.40521       -1.40281       -1.39017       -1.32760
       -0.80961       -0.80195       -0.77624       -0.76777       -0.75866
       -0.75184       -0.74167       -0.66959       -0.65073       -0.64219
       -0.64060       -0.59454       -0.58455       -0.57434       -0.56898
        0.00338        0.04043        0.04226        0.05603        0.13471
        0.14508        0.15212        0.16915        0.17915        0.19423
        0.20005        0.21585        0.22520        0.23289        0.23855
        0.24955        0.28265        0.31647        0.33667        0.38336
        0.46556        0.49380        0.50043        0.53286        0.55029
        0.55098        0.57213        0.57602        0.59664        0.60640
        0.61320        0.82617        0.88197        0.89635        0.92026
        0.92567        0.93863        0.96009        0.98994        1.00600
        1.02317        1.03963        1.05403        1.07700        1.09681
        1.10575        1.13640        1.16784        1.19693        1.23852
        1.31535        1.35131        1.39134        1.40560        1.43858
        1.44655        1.46616        1.46967        1.48503        1.48967
        1.51813        1.57892        1.61689        1.63912        1.66208
        1.67356        1.76462        1.78852        1.80751        1.82551
        1.83182        1.88426        1.91371        2.04364        2.09600
        2.12522        2.14145        2.14853        2.17779        2.19145
        2.27343        2.28289        2.31939        2.32830        2.33614
        2.35646        2.41987        2.57241        2.59017        2.62050
        2.64286        2.72634        2.74192        2.76391        2.77871
        2.79653        2.80583        2.83270        2.88881        2.93890
        2.98086        3.22773        3.27857        3.29309        3.35199
        3.38277        3.38851        3.40047        3.41788        3.44415
        3.45163        3.50516        3.52885        3.55792        3.56823
        3.59969        3.63499        3.89871        3.91024        3.91801
        3.94057        4.11624        4.15277        4.17584        4.20249
        5.07689        5.17829        5.21890        5.28535        5.31753
        5.32191        5.36176        5.68168        5.75296        5.78046
        5.85015        5.94429        5.98104        5.98493        6.04193
       37.00372       51.40932       51.44293       51.44938       51.49204
 Time used in FCKEIG, thr_jaco:   1.05D-01  2.60D-02  1.74D-09
 CPU and wall times used in FCKEIG, THR_FCKEIG:   1.05D-01  2.60D-02  4.19D-07
 -----------------------------------------------------------------------------

 *** DIIS iteration number   11
 RDSUPM called. NFMAT, ISYMDM(1:NFMAT)                     1
                     1

 ITDIIS, energy, error norm, change in energy, scr.thr., difden:
@ DIIS iter.  11    -361.207512506        7.07902D-06   -1.24D-10  -20    F

 (DIIS_RED) Control Parameters C2DIIS =         F NEVC =    8


 (DIIS_RED) B matrix:

               Column   1     Column   2     Column   3     Column   4     Column   5     Column   6
       1       0.00000001
       2      -0.00000000     0.00000000
       3       0.00000000     0.00000000     0.00000000
       4       0.00000026     0.00000003     0.00000003     0.00851355
       5       0.00000029    -0.00000006    -0.00000004     0.00071849     0.00098262
       6      -0.00000003     0.00000001     0.00000001     0.00060699     0.00002152     0.00012339
       7       0.00000008     0.00000000    -0.00000000     0.00000444     0.00004981     0.00000176
       8       0.00000001     0.00000001     0.00000000     0.00000114     0.00000042     0.00000155

               Column   7     Column   8
       7       0.00000528
       8       0.00000037     0.00000013
    ==== End of matrix output ====

 DIIS C vector; C2DIIS = F, LAMBDA = -2.30D-11
   -0.070882   -0.047778    1.112408    0.000023   -0.000043   -0.000327    0.001901    0.004697
* Read MO coefficients from SIRIUS.RST with label "NEWORB  " and header info: 20Dec18  DIIS  11
      Virial theorem: -V/T =      2.003133
@    MULPOP   N      -0.72; H       0.37; H       0.41; H       0.33; H       0.39; O      -0.67; O      -0.63; O      -0.60; O      -0.65; H       0.34; 
@             H       0.39; H       0.35; H       0.34; H       0.37; H       0.30; H       0.36; H       0.33; 

 DIIS Fock eigenvalues in symmetry 1
      -20.64865      -20.63813      -20.62205      -20.61989      -15.70096
       -1.41161       -1.40521       -1.40281       -1.39017       -1.32760
       -0.80961       -0.80195       -0.77624       -0.76777       -0.75866
       -0.75184       -0.74167       -0.66959       -0.65073       -0.64219
       -0.64060       -0.59454       -0.58455       -0.57434       -0.56898
        0.00338        0.04043        0.04226        0.05603        0.13471
        0.14508        0.15212        0.16915        0.17915        0.19423
        0.20005        0.21585        0.22520        0.23289        0.23855
        0.24955        0.28265        0.31647        0.33667        0.38336
        0.46556        0.49380        0.50043        0.53286        0.55029
        0.55098        0.57213        0.57602        0.59664        0.60640
        0.61320        0.82617        0.88197        0.89635        0.92026
        0.92567        0.93863        0.96009        0.98994        1.00600
        1.02317        1.03963        1.05403        1.07700        1.09681
        1.10575        1.13640        1.16784        1.19693        1.23852
        1.31535        1.35131        1.39134        1.40560        1.43858
        1.44655        1.46616        1.46966        1.48503        1.48967
        1.51813        1.57892        1.61689        1.63912        1.66208
        1.67356        1.76462        1.78852        1.80751        1.82551
        1.83182        1.88426        1.91371        2.04364        2.09600
        2.12522        2.14145        2.14853        2.17779        2.19145
        2.27343        2.28289        2.31939        2.32830        2.33614
        2.35646        2.41987        2.57241        2.59017        2.62050
        2.64285        2.72634        2.74192        2.76391        2.77871
        2.79653        2.80583        2.83270        2.88881        2.93890
        2.98086        3.22773        3.27857        3.29309        3.35199
        3.38277        3.38851        3.40047        3.41788        3.44415
        3.45163        3.50516        3.52885        3.55792        3.56823
        3.59969        3.63499        3.89871        3.91024        3.91801
        3.94057        4.11624        4.15277        4.17584        4.20249
        5.07689        5.17829        5.21890        5.28535        5.31753
        5.32191        5.36176        5.68168        5.75296        5.78046
        5.85015        5.94429        5.98104        5.98493        6.04193
       37.00372       51.40932       51.44293       51.44938       51.49204
 Time used in FCKEIG, thr_jaco:   1.28D-01  3.20D-02  3.32D-10
 CPU and wall times used in FCKEIG, THR_FCKEIG:   1.28D-01  3.20D-02  8.00D-08
 -----------------------------------------------------------------------------

 *** DIIS iteration number   12
 RDSUPM called. NFMAT, ISYMDM(1:NFMAT)                     1
                     1

 ITDIIS, energy, error norm, change in energy, scr.thr., difden:
@ DIIS iter.  12    -361.207512506        1.52987D-06   -2.22D-12  -20    F

 (DIIS_RED) Control Parameters C2DIIS =         F NEVC =    8


 (DIIS_RED) B matrix:

               Column   1     Column   2     Column   3     Column   4     Column   5     Column   6
       1     9.634254D-09
       2    -7.211511D-10   1.755830D-09
       3     3.937096D-10   1.219100D-11   5.011259D-11
       4     1.400098D-11   2.290984D-11   6.310365D-12   2.340508D-12
       5     2.860112D-07  -6.332632D-08  -4.212058D-08  -4.411593D-09   9.826244D-04
       6    -3.321060D-08   1.471637D-08   1.340052D-08   1.809788D-09   2.152461D-05   1.233895D-04
       7     8.360727D-08   4.320735D-09  -2.709333D-09  -3.682717D-10   4.981024D-05   1.755812D-06
       8     1.486905D-08   7.503930D-09   5.661641D-10   6.300733D-11   4.197846D-07   1.554003D-06

               Column   7     Column   8
       7     5.280489D-06
       8     3.711427D-07   1.277792D-07
    ==== End of matrix output ====

 DIIS C vector; C2DIIS = F, LAMBDA = -1.51D-12
    0.000981   -0.019752   -0.136866    1.154016    0.000006   -0.000021   -0.000161    0.001797
* Read MO coefficients from SIRIUS.RST with label "NEWORB  " and header info: 20Dec18  DIIS  12
      Virial theorem: -V/T =      2.003133
@    MULPOP   N      -0.72; H       0.37; H       0.41; H       0.33; H       0.39; O      -0.67; O      -0.63; O      -0.60; O      -0.65; H       0.34; 
@             H       0.39; H       0.35; H       0.34; H       0.37; H       0.30; H       0.36; H       0.33; 

 DIIS Fock eigenvalues in symmetry 1
      -20.64865      -20.63813      -20.62205      -20.61989      -15.70096
[...]
       3       0.34066526    -0.31898548     0.88441814
    ==== End of matrix output ====


 CCSD  Transition strength matrix for state nr. 13 of symmetry 1
 CCSD  excitation energy:15.14721212

 Gauge: length

               Column   1     Column   2     Column   3
       1     1.352172D-07   8.972790D-07  -3.237636D-06
       2     8.972790D-07   5.408796D-06  -1.974516D-05
       3    -3.237636D-06  -1.974516D-05   7.197541D-05
    ==== End of matrix output ====

 Principal values of diagonalized transition strength matrix:

             a.u.               
 1      -0.00000002
 2      -0.00000000
 3       0.00007754

 Principal axis of diagonalized transition strength matrix:


               Column   1     Column   2     Column   3
       1       0.76729122     0.63983101    -0.04336441
       2      -0.62642860     0.73330684    -0.26428825
       3      -0.13730040     0.22995076     0.96346834
    ==== End of matrix output ====


 CCSD   oscillator strength matrix for state nr. 13 of symmetry 1
 CCSD  excitation energy:15.14721212


               Column   1     Column   2     Column   3
       1     1.365442D-06   9.060850D-06  -3.269411D-05
       2     9.060850D-06   5.461879D-05  -1.993894D-04
       3    -3.269411D-05  -1.993894D-04   7.268178D-04
    ==== End of matrix output ====

 Principal values of diagonalized oscillator strength matrix:

             a.u.               
 1      -0.00000018
 2      -0.00000000
 3       0.00078298

 Principal axis of diagonalized oscillator strength matrix:


               Column   1     Column   2     Column   3
       1       0.76729122     0.63983101    -0.04336441
       2      -0.62642860     0.73330684    -0.26428825
       3      -0.13730040     0.22995076     0.96346834
    ==== End of matrix output ====


 CCSD  Transition strength matrix for state nr. 14 of symmetry 1
 CCSD  excitation energy:15.15532096

 Gauge: length

               Column   1     Column   2     Column   3
       1     1.299735D-05   1.173071D-05   6.940968D-06
       2     1.173071D-05   1.058746D-05   6.265022D-06
       3     6.940968D-06   6.265022D-06   3.702951D-06
    ==== End of matrix output ====

 Principal values of diagonalized transition strength matrix:

             a.u.               
 1      -0.00000000
 2      -0.00000000
 3       0.00002729

 Principal axis of diagonalized transition strength matrix:


               Column   1     Column   2     Column   3
       1      -0.20669194    -0.69356089     0.69010994
       2      -0.31834340     0.71463355     0.62286143
       3       0.92516805     0.09095151     0.36849953
    ==== End of matrix output ====


 CCSD   oscillator strength matrix for state nr. 14 of symmetry 1
 CCSD  excitation energy:15.15532096


               Column   1     Column   2     Column   3
       1     1.313193D-04   1.185218D-04   7.012840D-05
       2     1.185218D-04   1.069709D-04   6.329895D-05
       3     7.012840D-05   6.329895D-05   3.741294D-05
    ==== End of matrix output ====

 Principal values of diagonalized oscillator strength matrix:

             a.u.               
 1      -0.00000004
 2      -0.00000000
 3       0.00027574

 Principal axis of diagonalized oscillator strength matrix:


               Column   1     Column   2     Column   3
       1      -0.20669194    -0.69356089     0.69010994
       2      -0.31834340     0.71463355     0.62286143
       3       0.92516805     0.09095151     0.36849953
    ==== End of matrix output ====


 CCSD  Transition strength matrix for state nr. 15 of symmetry 1
 CCSD  excitation energy:15.16903236

 Gauge: length

               Column   1     Column   2     Column   3
       1     1.280862D-05   9.273100D-06  -9.140204D-06
       2     9.273100D-06   6.713402D-06  -6.618074D-06
       3    -9.140204D-06  -6.618074D-06   6.513522D-06
    ==== End of matrix output ====

 Principal values of diagonalized transition strength matrix:

             a.u.               
 1      -0.00000001
 2       0.00000000
 3       0.00002604

 Principal axis of diagonalized transition strength matrix:


               Column   1     Column   2     Column   3
       1       0.35554156    -0.61783795     0.70133193
       2       0.35916048     0.78306058     0.50775966
       3       0.86289857    -0.07136104    -0.50031356
    ==== End of matrix output ====


 CCSD   oscillator strength matrix for state nr. 15 of symmetry 1
 CCSD  excitation energy:15.16903236


               Column   1     Column   2     Column   3
       1     1.295296D-04   9.377597D-05  -9.243203D-05
       2     9.377597D-05   6.789054D-05  -6.692652D-05
       3    -9.243203D-05  -6.692652D-05   6.586922D-05
    ==== End of matrix output ====

 Principal values of diagonalized oscillator strength matrix:

             a.u.               
 1      -0.00000007
 2       0.00000000
 3       0.00026336

 Principal axis of diagonalized oscillator strength matrix:


               Column   1     Column   2     Column   3
       1       0.35554156    -0.61783795     0.70133193
       2       0.35916048     0.78306058     0.50775966
       3       0.86289857    -0.07136104    -0.50031356
    ==== End of matrix output ====

  Total time for    135 linear response residues:      21.34 seconds.
  

 *******************************************************************************
 *******************************************************************************
 *                                                                             *
 *                                                                             *
 *                   SUMMARY OF COUPLED CLUSTER CALCULATION                    *
 *                                                                             *
 *                                                                             *
 *******************************************************************************
 *******************************************************************************

                                                                                
                                                                                
            Total SCF   energy:                  -361.2075125064                
            Total MP2   energy:                  -362.3180919615                
            Total CCSD  energy:                  -362.3587594588                
                                                                                
                                                                                
            Total SCF   energy:                  -361.2075125064                
            Total RSTAR energy:                  -362.3587594588                
            Total CCSD  energy:                  -362.3587983748                
                                                                                
                                                                                
            Total SCF   energy:                  -361.2075125064                
            Total RSTAR energy:                  -362.3587983748                
            Total CCSD  energy:                  -362.3587999377                
                                                                                
                                                                                
            Total SCF   energy:                  -361.2075125064                
            Total RSTAR energy:                  -362.3587999377                
            Total CCSD  energy:                  -362.3588000100                
                                                                                
                                                                                
            Total SCF   energy:                  -361.2075125064                
            Total RSTAR energy:                  -362.3588000100                
            Total CCSD  energy:                  -362.3588000135                
            CCSD Total  energy:                  -362.7649949725                
            CCSD E(PE-CC)     :                    -0.4026999077                
                                                                                
                                                                                
 +=============================================================================+
 |  sym. | Exci.  |        CCSD       Excitation energies            | ||T1||  |
 |(spin, |        +------------------------------------------------------------+
 | spat) |        |     Hartree    |       eV.      |     cm-1       |    %    |
 +=============================================================================+
 | ^1A   |    1   |    14.9106926  |     405.74058  |   3272518.725  |  88.70  |
 | ^1A   |    2   |    14.9695975  |     407.34347  |   3285446.859  |  88.81  |
 | ^1A   |    3   |    14.9830382  |     407.70921  |   3288396.754  |  88.80  |
 | ^1A   |    4   |    14.9912927  |     407.93383  |   3290208.416  |  88.67  |
 | ^1A   |    5   |    15.0212994  |     408.75035  |   3296794.127  |  88.45  |
 | ^1A   |    6   |    15.0225111  |     408.78332  |   3297060.060  |  88.41  |
 | ^1A   |    7   |    15.0363921  |     409.16104  |   3300106.590  |  88.53  |
 | ^1A   |    8   |    15.0509837  |     409.55810  |   3303309.060  |  88.51  |
 | ^1A   |    9   |    15.0862569  |     410.51793  |   3311050.649  |  89.03  |
 | ^1A   |   10   |    15.0891322  |     410.59617  |   3311681.704  |  88.86  |
 | ^1A   |   11   |    15.1026640  |     410.96439  |   3314651.574  |  88.19  |
 | ^1A   |   12   |    15.1102676  |     411.17130  |   3316320.372  |  89.03  |
 | ^1A   |   13   |    15.1472121  |     412.17661  |   3324428.767  |  88.04  |
 | ^1A   |   14   |    15.1553210  |     412.39726  |   3326208.449  |  87.94  |
 | ^1A   |   15   |    15.1690324  |     412.77037  |   3329217.754  |  87.92  |
 +=============================================================================+
                                                                                
                                                                                
     Total energies in Hartree:                                                 
             1 ^1A       -347.4516024951                                        
             2 ^1A       -347.3926975824                                        
             3 ^1A       -347.3792568719                                        
             4 ^1A       -347.3710023330                                        
             5 ^1A       -347.3409956237                                        
             6 ^1A       -347.3397839441                                        
             7 ^1A       -347.3259029315                                        
             8 ^1A       -347.3113114050                                        
             9 ^1A       -347.2760381280                                        
            10 ^1A       -347.2731628295                                        
            11 ^1A       -347.2596311064                                        
            12 ^1A       -347.2520275056                                        
            13 ^1A       -347.2150829399                                        
            14 ^1A       -347.2069741090                                        
            15 ^1A       -347.1932627078                                        
                                                                                
                                                                                
 +=============================================================================+
 |  sym. | Exci.  |        CCSD       Length   Gauge Oscillator Strength       |
 |(spin, |        +------------------------------------------------------------+
 | spat) |        | Dipole Strength(a.u.) | Oscillator strength  | Direction   |
 +=============================================================================+
 | ^1A   |    1   |        0.0002392      |      0.0023780       |  (Y,Z)      |
 | ^1A   |    2   |        0.0019059      |      0.0190207       |  (Y,Z)      |
 | ^1A   |    3   |        0.0013399      |      0.0133839       |  (Y,Z)      |
 | ^1A   |    4   |        0.0015630      |      0.0156210       |  (Y,Z)      |
 | ^1A   |    5   |        0.0013200      |      0.0132188       |  (Y,Z)      |
 | ^1A   |    6   |        0.0007330      |      0.0073408       |  (Y,Z)      |
 | ^1A   |    7   |        0.0008841      |      0.0088622       |  (Y,Z)      |
 | ^1A   |    8   |        0.0002317      |      0.0023247       |  (Y,Z)      |
 | ^1A   |    9   |        0.0024689      |      0.0248314       |  (Y,Z)      |
 | ^1A   |   10   |        0.0019521      |      0.0196367       |  (Y,Z)      |
 | ^1A   |   11   |        0.0001327      |      0.0013359       |  (Y,Z)      |
 | ^1A   |   12   |        0.0023432      |      0.0236038       |  (Y,Z)      |
 | ^1A   |   13   |        0.0000775      |      0.0007828       |  (Y,Z)      |
 | ^1A   |   14   |        0.0000273      |      0.0002757       |  (Y,Z)      |
 | ^1A   |   15   |        0.0000260      |      0.0002633       |  (Y,Z)      |
 +=============================================================================+

  1 a.u. =        27.21138 eV.  
  1 a.u. =    219474.62934 cm-1.
  

 *******************************************************************************
 *******************************************************************************
 *                                                                             *
 *                                                                             *
 *                      END OF COUPLED CLUSTER CALCULATION                     *
 *                                                                             *
 *                                                                             *
 *******************************************************************************
 *******************************************************************************


 CPU and wall time for CC :  274460.582   87559.462

 
     Date and time (Linux)  : Fri Dec 21 06:09:21 2018
     Host name              : s71p32.deic.sdu.dk                      


                      .-------------------------------------.
                      | End of Coupled Cluster Section (CC) |
                      `-------------------------------------'

  Total CPU  time used in DALTON:  76 hours 18 minutes 59 seconds
  Total wall time used in DALTON:  24 hours 21 minutes 42 seconds

 
     Date and time (Linux)  : Fri Dec 21 06:09:21 2018
     Host name              : s71p32.deic.sdu.dk                      
  

 +---------------------------------------------------------+ 
 | List of selected calculated molecular properties (a.u.) | 
 +---------------------------------------------------------+ 

  Properties are read from unit number                      4

 CCSD       properties :
 #  1 1 PE-CCSD  Ground state Energy =    -362.7649949725
 #  2 1 E(PE-CC) Ground state Energy =      -0.4026999077
 #  3 1 Sy: 1 Sp: 1 Exc:  1 E_tot:   -347.4516024951 w:     14.9106925697 E_grs:   -362.3622950648
 #  4 1 Exctot   Excited state Energy =    -347.4516024951
 #  5 1 Sy: 1 Sp: 1 Exc:  2 E_tot:   -347.3926975824 w:     14.9695974824 E_grs:   -362.3622950648
 #  6 1 Exctot   Excited state Energy =    -347.3926975824
 #  7 1 Sy: 1 Sp: 1 Exc:  3 E_tot:   -347.3792568719 w:     14.9830381929 E_grs:   -362.3622950648
 #  8 1 Exctot   Excited state Energy =    -347.3792568719
 #  9 1 Sy: 1 Sp: 1 Exc:  4 E_tot:   -347.3710023330 w:     14.9912927318 E_grs:   -362.3622950648
 # 10 1 Exctot   Excited state Energy =    -347.3710023330
 # 11 1 Sy: 1 Sp: 1 Exc:  5 E_tot:   -347.3409956237 w:     15.0212994411 E_grs:   -362.3622950648
 # 12 1 Exctot   Excited state Energy =    -347.3409956237
 # 13 1 Sy: 1 Sp: 1 Exc:  6 E_tot:   -347.3397839441 w:     15.0225111207 E_grs:   -362.3622950648
 # 14 1 Exctot   Excited state Energy =    -347.3397839441
 # 15 1 Sy: 1 Sp: 1 Exc:  7 E_tot:   -347.3259029315 w:     15.0363921333 E_grs:   -362.3622950648
 # 16 1 Exctot   Excited state Energy =    -347.3259029315
 # 17 1 Sy: 1 Sp: 1 Exc:  8 E_tot:   -347.3113114050 w:     15.0509836598 E_grs:   -362.3622950648
 # 18 1 Exctot   Excited state Energy =    -347.3113114050
 # 19 1 Sy: 1 Sp: 1 Exc:  9 E_tot:   -347.2760381280 w:     15.0862569368 E_grs:   -362.3622950648
 # 20 1 Exctot   Excited state Energy =    -347.2760381280
 # 21 1 Sy: 1 Sp: 1 Exc: 10 E_tot:   -347.2731628295 w:     15.0891322353 E_grs:   -362.3622950648
 # 22 1 Exctot   Excited state Energy =    -347.2731628295
 # 23 1 Sy: 1 Sp: 1 Exc: 11 E_tot:   -347.2596311064 w:     15.1026639584 E_grs:   -362.3622950648
 # 24 1 Exctot   Excited state Energy =    -347.2596311064
 # 25 1 Sy: 1 Sp: 1 Exc: 12 E_tot:   -347.2520275056 w:     15.1102675592 E_grs:   -362.3622950648
 # 26 1 Exctot   Excited state Energy =    -347.2520275056
 # 27 1 Sy: 1 Sp: 1 Exc: 13 E_tot:   -347.2150829399 w:     15.1472121248 E_grs:   -362.3622950648
 # 28 1 Exctot   Excited state Energy =    -347.2150829399
 # 29 1 Sy: 1 Sp: 1 Exc: 14 E_tot:   -347.2069741090 w:     15.1553209558 E_grs:   -362.3622950648
 # 30 1 Exctot   Excited state Energy =    -347.2069741090
 # 31 1 Sy: 1 Sp: 1 Exc: 15 E_tot:   -347.1932627078 w:     15.1690323569 E_grs:   -362.3622950648
 # 32 1 Exctot   Excited state Energy =    -347.1932627078
 # 33 1 |<O|XDIPLEN |i(14.910693)>| =     0.00451835
 # 35 1 |<O|XDIPLEN |i(14.969597)>| =     0.00263196
 # 37 1 |<O|XDIPLEN |i(14.983038)>| =     0.02800553
 # 39 1 |<O|XDIPLEN |i(14.991293)>| =     0.03064110
 # 41 1 |<O|XDIPLEN |i(15.021299)>| =     0.00838779
 # 43 1 |<O|XDIPLEN |i(15.022511)>| =     0.02665817
 # 45 1 |<O|XDIPLEN |i(15.036392)>| =     0.00585910
 # 47 1 |<O|XDIPLEN |i(15.050984)>| =     0.00743015
 # 49 1 |<O|XDIPLEN |i(15.086257)>| =     0.04587752
 # 51 1 |<O|XDIPLEN |i(15.089132)>| =     0.00576396
 # 53 1 |<O|XDIPLEN |i(15.102664)>| =     0.00521154
 # 55 1 |<O|XDIPLEN |i(15.110268)>| =     0.01799948
 # 57 1 |<O|XDIPLEN |i(15.147212)>| =     0.00036772
 # 59 1 |<O|XDIPLEN |i(15.155321)>| =     0.00360518
 # 61 1 |<O|XDIPLEN |i(15.169032)>| =     0.00357891
 # 63 1 |<O|YDIPLEN |i(14.910693)>| =     0.01246161
 # 65 1 |<O|YDIPLEN |i(14.969597)>| =     0.04343610
 # 67 1 |<O|YDIPLEN |i(14.983038)>| =     0.00775897
 # 69 1 |<O|YDIPLEN |i(14.991293)>| =     0.01088586
 # 71 1 |<O|YDIPLEN |i(15.021299)>| =     0.02649499
 # 73 1 |<O|YDIPLEN |i(15.022511)>| =     0.00424061
 # 75 1 |<O|YDIPLEN |i(15.036392)>| =     0.01174353
 # 77 1 |<O|YDIPLEN |i(15.050984)>| =     0.00091752
 # 79 1 |<O|YDIPLEN |i(15.086257)>| =     0.01466367
 # 81 1 |<O|YDIPLEN |i(15.089132)>| =     0.03810236
 # 83 1 |<O|YDIPLEN |i(15.102664)>| =     0.00964806
 # 85 1 |<O|YDIPLEN |i(15.110268)>| =     0.01365156
 # 87 1 |<O|YDIPLEN |i(15.147212)>| =     0.00232568
 # 89 1 |<O|YDIPLEN |i(15.155321)>| =     0.00325384
 # 91 1 |<O|YDIPLEN |i(15.169032)>| =     0.00259102
 # 93 1 |<O|ZDIPLEN |i(14.910693)>| =     0.00797000
 # 95 1 |<O|ZDIPLEN |i(14.969597)>| =     0.00350925
 # 97 1 |<O|ZDIPLEN |i(14.983038)>| =     0.02225746
 # 99 1 |<O|ZDIPLEN |i(14.991293)>| =     0.02248616
 #101 1 |<O|ZDIPLEN |i(15.021299)>| =     0.02340230
 #103 1 |<O|ZDIPLEN |i(15.022511)>| =     0.00208373
 #105 1 |<O|ZDIPLEN |i(15.036392)>| =     0.02668022
 #107 1 |<O|ZDIPLEN |i(15.050984)>| =     0.01325274
 #109 1 |<O|ZDIPLEN |i(15.086257)>| =     0.01221362
 #111 1 |<O|ZDIPLEN |i(15.089132)>| =     0.02161146
 #113 1 |<O|ZDIPLEN |i(15.102664)>| =     0.00352671
 #115 1 |<O|ZDIPLEN |i(15.110268)>| =     0.04281133
 #117 1 |<O|ZDIPLEN |i(15.147212)>| =     0.00848383
 #119 1 |<O|ZDIPLEN |i(15.155321)>| =     0.00192431
 #121 1 |<O|ZDIPLEN |i(15.169032)>| =     0.00255216

 THE_END   
