

     ************************************************************************
     *************** Dalton - An Electronic Structure Program ***************
     ************************************************************************

    This is output from DALTON release Dalton2017.alpha (2016)
         ( Web site: http://daltonprogram.org )

   ----------------------------------------------------------------------------

    NOTE:
     
    Dalton is an experimental code for the evaluation of molecular
    properties using (MC)SCF, DFT, CI, and CC wave functions.
    The authors accept no responsibility for the performance of
    the code or for the correctness of the results.
     
    The code (in whole or part) is provided under a licence and
    is not to be reproduced for further distribution without
    the written permission of the authors or their representatives.
     
    See the home page "http://daltonprogram.org" for further information.
     
    If results obtained with this code are published,
    the appropriate citations would be both of:
     
       K. Aidas, C. Angeli, K. L. Bak, V. Bakken, R. Bast,
       L. Boman, O. Christiansen, R. Cimiraglia, S. Coriani,
       P. Dahle, E. K. Dalskov, U. Ekstroem,
       T. Enevoldsen, J. J. Eriksen, P. Ettenhuber, B. Fernandez,
       L. Ferrighi, H. Fliegl, L. Frediani, K. Hald, A. Halkier,
       C. Haettig, H. Heiberg, T. Helgaker, A. C. Hennum,
       H. Hettema, E. Hjertenaes, S. Hoest, I.-M. Hoeyvik,
       M. F. Iozzi, B. Jansik, H. J. Aa. Jensen, D. Jonsson,
       P. Joergensen, J. Kauczor, S. Kirpekar,
       T. Kjaergaard, W. Klopper, S. Knecht, R. Kobayashi, H. Koch,
       J. Kongsted, A. Krapp, K. Kristensen, A. Ligabue,
       O. B. Lutnaes, J. I. Melo, K. V. Mikkelsen, R. H. Myhre,
       C. Neiss, C. B. Nielsen, P. Norman, J. Olsen,
       J. M. H. Olsen, A. Osted, M. J. Packer, F. Pawlowski,
       T. B. Pedersen, P. F. Provasi, S. Reine, Z. Rinkevicius,
       T. A. Ruden, K. Ruud, V. Rybkin, P. Salek, C. C. M. Samson,
       A. Sanchez de Meras, T. Saue, S. P. A. Sauer,
       B. Schimmelpfennig, K. Sneskov, A. H. Steindal,
       K. O. Sylvester-Hvid, P. R. Taylor, A. M. Teale,
       E. I. Tellgren, D. P. Tew, A. J. Thorvaldsen, L. Thoegersen,
       O. Vahtras, M. A. Watson, D. J. D. Wilson, M. Ziolkowski
       and H. Agren,
       "The Dalton quantum chemistry program system",
       WIREs Comput. Mol. Sci. 2014, 4:269–284 (doi: 10.1002/wcms.1172)
     
    and
     
       Dalton, a Molecular Electronic Structure Program,
       Release Dalton2017.alpha (2016), see http://daltonprogram.org
   ----------------------------------------------------------------------------

    Authors in alphabetical order (major contribution(s) in parenthesis):

  Kestutis Aidas,           Vilnius University,           Lithuania   (QM/MM)
  Celestino Angeli,         University of Ferrara,        Italy       (NEVPT2)
  Keld L. Bak,              UNI-C,                        Denmark     (AOSOPPA, non-adiabatic coupling, magnetic properties)
  Vebjoern Bakken,          University of Oslo,           Norway      (DALTON; geometry optimizer, symmetry detection)
  Radovan Bast,             UiT The Arctic U. of Norway,  Norway      (DALTON installation and execution frameworks)
  Pablo Baudin,             University of Valencia,       Spain       (Cholesky excitation energies)
  Linus Boman,              NTNU,                         Norway      (Cholesky decomposition and subsystems)
  Ove Christiansen,         Aarhus University,            Denmark     (CC module)
  Renzo Cimiraglia,         University of Ferrara,        Italy       (NEVPT2)
  Sonia Coriani,            University of Trieste,        Italy       (CC module, MCD in RESPONS)
  Janusz Cukras,            University of Trieste,        Italy       (MChD in RESPONS)
  Paal Dahle,               University of Oslo,           Norway      (Parallelization)
  Erik K. Dalskov,          UNI-C,                        Denmark     (SOPPA)
  Thomas Enevoldsen,        Univ. of Southern Denmark,    Denmark     (SOPPA)
  Janus J. Eriksen,         Aarhus University,            Denmark     (Polarizable embedding model, TDA)
  Rasmus Faber,             University of Copenhagen,     Denmark     (Vib.avg. NMR with SOPPA, parallel AO-SOPPA)
  Berta Fernandez,          U. of Santiago de Compostela, Spain       (doublet spin, ESR in RESPONS)
  Lara Ferrighi,            Aarhus University,            Denmark     (PCM Cubic response)
  Heike Fliegl,             University of Oslo,           Norway      (CCSD(R12))
  Luca Frediani,            UiT The Arctic U. of Norway,  Norway      (PCM)
  Bin Gao,                  UiT The Arctic U. of Norway,  Norway      (Gen1Int library)
  Christof Haettig,         Ruhr-University Bochum,       Germany     (CC module)
  Kasper Hald,              Aarhus University,            Denmark     (CC module)
  Asger Halkier,            Aarhus University,            Denmark     (CC module)
  Frederik Beyer Hansen,    University of Copenhagen,     Denmark     (Parallel AO-SOPPA)
  Erik D. Hedegaard,        Univ. of Southern Denmark,    Denmark     (Polarizable embedding model, QM/MM)
  Hanne Heiberg,            University of Oslo,           Norway      (geometry analysis, selected one-electron integrals)
  Trygve Helgaker,          University of Oslo,           Norway      (DALTON; ABACUS, ERI, DFT modules, London, and much more)
  Alf Christian Hennum,     University of Oslo,           Norway      (Parity violation)
  Hinne Hettema,            University of Auckland,       New Zealand (quadratic response in RESPONS; SIRIUS supersymmetry)
  Eirik Hjertenaes,         NTNU,                         Norway      (Cholesky decomposition)
  Pi A. B. Haase,           University of Copenhagen,     Denmark     (Triplet AO-SOPPA)
  Maria Francesca Iozzi,    University of Oslo,           Norway      (RPA)
  Brano Jansik              Technical Univ. of Ostrava    Czech Rep.  (DFT cubic response)
  Hans Joergen Aa. Jensen,  Univ. of Southern Denmark,    Denmark     (DALTON; SIRIUS, RESPONS, ABACUS modules, London, and much more)
  Dan Jonsson,              UiT The Arctic U. of Norway,  Norway      (cubic response in RESPONS module)
  Poul Joergensen,          Aarhus University,            Denmark     (RESPONS, ABACUS, and CC modules)
  Maciej Kaminski,          University of Warsaw,         Poland      (CPPh in RESPONS)
  Joanna Kauczor,           Linkoeping University,        Sweden      (Complex polarization propagator (CPP) module)
  Sheela Kirpekar,          Univ. of Southern Denmark,    Denmark     (Mass-velocity & Darwin integrals)
  Wim Klopper,              KIT Karlsruhe,                Germany     (R12 code in CC, SIRIUS, and ABACUS modules)
  Stefan Knecht,            ETH Zurich,                   Switzerland (Parallel CI and MCSCF)
  Rika Kobayashi,           Australian National Univ.,    Australia   (DIIS in CC, London in MCSCF)
  Henrik Koch,              NTNU,                         Norway      (CC module, Cholesky decomposition)
  Jacob Kongsted,           Univ. of Southern Denmark,    Denmark     (Polarizable embedding model, QM/MM)
  Andrea Ligabue,           University of Modena,         Italy       (CTOCD, AOSOPPA)
  Nanna H. List             Univ. of Southern Denmark,    Denmark     (Polarizable embedding model)
  Ola B. Lutnaes,           University of Oslo,           Norway      (DFT Hessian)
  Juan I. Melo,             University of Buenos Aires,   Argentina   (LRESC, Relativistic Effects on NMR Shieldings)
  Kurt V. Mikkelsen,        University of Copenhagen,     Denmark     (MC-SCRF and QM/MM)
  Rolf H. Myhre,            NTNU,                         Norway      (Cholesky, subsystems and ECC2)
  Christian Neiss,          Univ. Erlangen-Nuernberg,     Germany     (CCSD(R12))
  Christian B. Nielsen,     University of Copenhagen,     Denmark     (QM/MM)
  Patrick Norman,           Linkoeping University,        Sweden      (Cubic response and complex frequency response in RESPONS)
  Jeppe Olsen,              Aarhus University,            Denmark     (SIRIUS CI/density modules)
  Jogvan Magnus H. Olsen,   Univ. of Southern Denmark,    Denmark     (Polarizable embedding model, QM/MM)
  Anders Osted,             Copenhagen University,        Denmark     (QM/MM)
  Martin J. Packer,         University of Sheffield,      UK          (SOPPA)
  Filip Pawlowski,          Kazimierz Wielki University,  Poland      (CC3)
  Morten N. Pedersen,       Univ. of Southern Denmark,    Denmark     (Polarizable embedding model)
  Thomas B. Pedersen,       University of Oslo,           Norway      (Cholesky decomposition)
  Patricio F. Provasi,      University of Northeastern,   Argentina   (Analysis of coupling constants in localized orbitals)
  Zilvinas Rinkevicius,     KTH Stockholm,                Sweden      (open-shell DFT, ESR)
  Elias Rudberg,            KTH Stockholm,                Sweden      (DFT grid and basis info)
  Torgeir A. Ruden,         University of Oslo,           Norway      (Numerical derivatives in ABACUS)
  Kenneth Ruud,             UiT The Arctic U. of Norway,  Norway      (DALTON; ABACUS magnetic properties and much more)
  Pawel Salek,              KTH Stockholm,                Sweden      (DALTON; DFT code)
  Claire C. M. Samson       University of Karlsruhe       Germany     (Boys localization, r12 integrals in ERI)
  Alfredo Sanchez de Meras, University of Valencia,       Spain       (CC module, Cholesky decomposition)
  Trond Saue,               Paul Sabatier University,     France      (direct Fock matrix construction)
  Stephan P. A. Sauer,      University of Copenhagen,     Denmark     (SOPPA(CCSD), SOPPA prop., AOSOPPA, vibrational g-factors)
  Bernd Schimmelpfennig,    Forschungszentrum Karlsruhe,  Germany     (AMFI module)
  Kristian Sneskov,         Aarhus University,            Denmark     (Polarizable embedding model, QM/MM)
  Arnfinn H. Steindal,      UiT The Arctic U. of Norway,  Norway      (parallel QM/MM, Polarizable embedding model)
  Casper Steinmann,         Univ. of Southern Denmark,    Denmark     (QFIT, Polarizable embedding model)
  K. O. Sylvester-Hvid,     University of Copenhagen,     Denmark     (MC-SCRF)
  Peter R. Taylor,          VLSCI/Univ. of Melbourne,     Australia   (Symmetry handling ABACUS, integral transformation)
  Andrew M. Teale,          University of Nottingham,     England     (DFT-AC, DFT-D)
  David P. Tew,             University of Bristol,        England     (CCSD(R12))
  Olav Vahtras,             KTH Stockholm,                Sweden      (triplet response, spin-orbit, ESR, TDDFT, open-shell DFT)
  David J. Wilson,          La Trobe University,          Australia   (DFT Hessian and DFT magnetizabilities)
  Hans Agren,               KTH Stockholm,                Sweden      (SIRIUS module, RESPONS, MC-SCRF solvation model)
 --------------------------------------------------------------------------------

     Date and time (Linux)  : Thu Dec 20 05:47:38 2018
     Host name              : s71p32.deic.sdu.dk                      

 * Work memory size             :  2048000000 = 15.259 gigabytes.

 * Directories for basis set searches:
   1) /work/sdujk/reinholdt/ECP-Sonia/mixed-basis
   2) /gpfs/gss1/work/sdujk/reinholdt/Programs/dalton-private/pe-cvs/basis


Compilation information
-----------------------

 Who compiled             | reinholdt
 Host                     | fe1.deic.sdu.dk
 System                   | Linux-3.10.0-327.36.3.el7.x86_64
 CMake generator          | Unix Makefiles
 Processor                | x86_64
 64-bit integers          | ON
 MPI                      | OFF
 Fortran compiler         | /opt/sys/apps/intel/2018.05/compilers_and_librarie
                          | s_2018.3.222/linux/bin/intel64/ifort
 Fortran compiler version | ifort (IFORT) 18.0.3 20180410
 C compiler               | /opt/sys/apps/intel/2018.05/compilers_and_librarie
                          | s_2018.3.222/linux/bin/intel64/icc
 C compiler version       | icc (ICC) 18.0.3 20180410
 C++ compiler             | /opt/sys/apps/intel/2018.05/compilers_and_librarie
                          | s_2018.3.222/linux/bin/intel64/icpc
 C++ compiler version     | icpc (ICC) 18.0.3 20180410
 Static linking           | OFF
 Last Git revision        | 252a54078a0f9a1f0a59b3262fa4a57829155fe9
 Git branch               | pe/cc-cvs
 Configuration time       | 2018-12-09 12:09:40.474621


   Content of the .dal input file
 ----------------------------------

**DALTON
.RUN WAVE FUNCTIONS
.PEQM
**INTEGRALS
.DIPLEN
**WAVE FUNCTIONS
.CC
*PRINT
!To check the origin of excit
.PRINTL
   0 11
*SCF INP
.THRESH
1.0D-7
*CC INP
.CCSD
.THRLEQ
 1.0D-9
.THRENR
 1.0D-10
.FROIMP
4
0
.PRINT
 1
.MAX IT
 1200
.MAXRED
 1200
.MXLRV
1199
*PECC
*CCEXCI
.NCCEXC
 15
.CVSEPARA
1
1
*CCLRSD
.DIPOLE
**END OF DALTON INPUT


   Content of the .mol file
 ----------------------------

ATOMBASIS


Atomtypes=4 Charge=0 Nosymm Angstrom
   7.00000    1    Basis=6-311++G**
N          0.000000        0.000000        0.000000
   1.00000    3    Basis=6-311++G**
H         -0.113818       -0.008972        0.990350
H         -0.436619       -0.825462       -0.358274
H          0.942070       -0.009928       -0.222225
   8.00000    4    Basis=6-311G**
O         -0.788956       -1.460330       -2.897238
O         -0.665608        2.186449       -1.219983
O         -0.170838        0.979297        3.239601
O          2.660495        1.061438        0.091784
   1.00000    8    Basis=6-311G**
H         -1.169333       -1.104885       -3.740086
H         -1.557012       -1.895931       -2.459296
H         -0.317428        1.968377       -2.114621
H         -0.449851        1.315757       -0.653535
H         -0.932131        0.380297        3.520217
H          0.175663        1.568757        3.961276
H          2.882927        2.011081       -0.120185
H          2.559537        0.873746        1.069939


       *******************************************************************
       *********** Output from DALTON general input processing ***********
       *******************************************************************

 --------------------------------------------------------------------------------
   Overall default print level:    0
   Print level for DALTON.STAT:    1

    HERMIT 1- and 2-electron integral sections will be executed
    "Old" integral transformation used (limited to max 255 basis functions)
    Wave function sections will be executed (SIRIUS module)
    Environment is modeled using polarizable embedding scheme (PE library)
 --------------------------------------------------------------------------------


   ****************************************************************************
   *************** Output of molecule and basis set information ***************
   ****************************************************************************


    The two title cards from your ".mol" input:
    ------------------------------------------------------------------------
 1:                                                                         
 2:                                                                         
    ------------------------------------------------------------------------

  Coordinates are entered in Angstrom and converted to atomic units.
          - Conversion factor : 1 bohr = 0.52917721 A

  Atomic type no.    1
  --------------------
  Nuclear charge:   7.00000
  Number of symmetry independent centers:    1
  Number of basis sets to read;    2
  The basis set is "6-311++G**" from the basis set library.
  Basis set file used for this atomic type with Z =   7 :
     "/gpfs/gss1/work/sdujk/reinholdt/Programs/dalton-private/pe-cvs/basis/6-311++G**"

  Info about the basis set file: your basis has no documentation.
  Basis set: 6-311++G**                                                                      

  Atomic type no.    2
  --------------------
  Nuclear charge:   1.00000
  Number of symmetry independent centers:    3
  Number of basis sets to read;    2
  The basis set is "6-311++G**" from the basis set library.
  Basis set file used for this atomic type with Z =   1 :
     "/gpfs/gss1/work/sdujk/reinholdt/Programs/dalton-private/pe-cvs/basis/6-311++G**"

  Info about the basis set file: your basis has no documentation.
  Basis set: 6-311++G**                                                                      

  Atomic type no.    3
  --------------------
  Nuclear charge:   8.00000
  Number of symmetry independent centers:    4
  Number of basis sets to read;    2
  The basis set is "6-311G**" from the basis set library.
  Basis set file used for this atomic type with Z =   8 :
     "/gpfs/gss1/work/sdujk/reinholdt/Programs/dalton-private/pe-cvs/basis/6-311G**"

  Info about the basis set file: your basis has no documentation.
  Basis set: 6-311G**                                                                        

  Atomic type no.    4
  --------------------
  Nuclear charge:   1.00000
  Number of symmetry independent centers:    8
  Number of basis sets to read;    2
  The basis set is "6-311G**" from the basis set library.
  Basis set file used for this atomic type with Z =   1 :
     "/gpfs/gss1/work/sdujk/reinholdt/Programs/dalton-private/pe-cvs/basis/6-311G**"

  Info about the basis set file: your basis has no documentation.
  Basis set: 6-311G**                                                                        


                         SYMGRP: Point group information
                         -------------------------------

@    Point group: C1 


                                 Isotopic Masses
                                 ---------------

                           N          14.003074
                           H           1.007825
                           H           1.007825
                           H           1.007825
                           O          15.994915
                           O          15.994915
                           O          15.994915
                           O          15.994915
                           H           1.007825
                           H           1.007825
                           H           1.007825
                           H           1.007825
                           H           1.007825
                           H           1.007825
                           H           1.007825
                           H           1.007825

                       Total mass:    89.068809 amu
                       Natural abundance:  98.514 %

 Center-of-mass coordinates (a.u.):    0.385135    1.030312   -0.269382


  Atoms and basis sets
  --------------------

  Number of atom types :    4
  Total number of atoms:   16

  label    atoms   charge   prim   cont     basis
  ----------------------------------------------------------------------
  N           1    7.0000    35    22      [12s6p1d|5s4p1d]                                   
  H           3    1.0000     9     7      [6s1p|4s1p]                                        
  O           4    8.0000    31    18      [11s5p1d|4s3p1d]                                   
  H           8    1.0000     8     6      [5s1p|3s1p]                                        
  ----------------------------------------------------------------------
  total:     16   50.0000   250   163
  ----------------------------------------------------------------------
  Spherical harmonic basis used.

  Threshold for neglecting AO integrals:  1.00D-12


  Cartesian Coordinates (a.u.)
  ----------------------------

  Total number of coordinates:   48
  N       :     1  x   0.0000000000    2  y   0.0000000000    3  z   0.0000000000
  H       :     4  x  -0.2150848481    5  y  -0.0169546228    6  z   1.8714902679
  H       :     7  x  -0.8250903310    8  y  -1.5598971066    9  z  -0.6770397377
  H       :    10  x   1.7802542906   11  y  -0.0187612010   12  z  -0.4199443881
  O       :    13  x  -1.4909107647   14  y  -2.7596237521   15  z  -5.4749863389
  O       :    16  x  -1.2578168266   17  y   4.1317897963   18  z  -2.3054337471
  O       :    19  x  -0.3228370317   20  y   1.8506031250   21  z   6.1219586443
  O       :    22  x   5.0276069069   23  y   2.0058271187   24  z   0.1734466227
  H       :    25  x  -2.2097191189   26  y  -2.0879300496   27  z  -7.0677382239
  H       :    28  x  -2.9423262533   29  y  -3.5827903419   30  z  -4.6473959003
  H       :    31  x  -0.5998519844   32  y   3.7196934407   33  z  -3.9960545482
  H       :    34  x  -0.8500951871   35  y   2.4864203770   36  z  -1.2350021631
  H       :    37  x  -1.7614723026   38  y   0.7186571762   39  z   6.6522460305
  H       :    40  x   0.3319549603   41  y   2.9645210867   42  z   7.4857267455
  H       :    43  x   5.4479424683   44  y   3.8003923052   45  z  -0.2271167343
  H       :    46  x   4.8368239368   47  y   1.6511406428   48  z   2.0218916804


   Interatomic separations (in Angstrom):
   --------------------------------------

            N           H           H           H           O           O     
            ------      ------      ------      ------      ------      ------
 N     :    0.000000
 H     :    0.996909    0.000000
 H     :    1.000192    1.609237    0.000000
 H     :    0.967976    1.607868    1.607603    0.000000
 O     :    3.339012    4.204235    2.640746    3.500830    0.000000
 O     :    2.590743    3.163845    3.141112    2.899004    4.015893    0.000000
 O     :    3.388690    2.457449    4.033919    3.768470    6.632846    4.646494
 O     :    2.865887    3.106447    3.654457    2.049247    5.214622    3.748245
 H     :    4.071407    4.969121    3.471541    4.246446    0.990667    4.175828
 H     :    3.473756    4.188494    2.610647    3.847974    0.985622    4.358477
 H     :    2.906353    3.686762    3.302196    3.013501    3.548360    0.984460
 H     :    1.536454    2.137799    2.161521    1.970003    3.585506    1.060905
 H     :    3.661342    2.687265    4.091709    4.203662    6.677734    5.079637
 H     :    4.264219    3.376304    4.976513    4.536662    7.559436    5.285331
 H     :    3.517124    3.780791    4.372876    2.803893    5.765886    3.719195
 H     :    2.908510    2.816443    3.728814    2.250948    5.691995    4.167552

            O           O           H           H           H           H     
            ------      ------      ------      ------      ------      ------
 O     :    0.000000
 O     :    4.234613    0.000000
 H     :    7.352336    5.834704    0.000000
 H     :    6.531909    5.748165    1.554501    0.000000
 H     :    5.446784    3.815598    3.579500    4.072867    0.000000
 H     :    3.917596    3.208494    3.987977    3.847274    1.605684    0.000000
 H     :    1.008520    5.012491    7.414447    6.428551    5.886532    4.304403
 H     :    0.994153    4.626525    8.262466    7.498665    6.108957    4.663878
 H     :    4.655988    0.998113    6.263684    6.359972    3.771190    3.446063
 H     :    3.489057    1.001103    6.399671    6.088726    4.429059    3.496020

            H           H           H           H     
            ------      ------      ------      ------
 H     :    0.000000
 H     :    1.683502    0.000000
 H     :    5.519660    4.917647    0.000000
 H     :    4.294077    3.811263    1.677649    0.000000


  Max    interatomic separation is    8.2625 Angstrom (   15.6138 Bohr)
  between atoms   14 and    9, "H     " and "H     ".

  Min HX interatomic separation is    0.9680 Angstrom (    1.8292 Bohr)

  Min YX interatomic separation is    2.5907 Angstrom (    4.8958 Bohr)


  Bond distances (Angstrom):
  --------------------------

                  atom 1     atom 2       distance
                  ------     ------       --------
  bond distance:  H          N            0.996909
  bond distance:  H          N            1.000192
  bond distance:  H          N            0.967976
  bond distance:  H          O            0.990667
  bond distance:  H          O            0.985622
  bond distance:  H          O            0.984460
  bond distance:  H          O            1.060905
  bond distance:  H          O            1.008520
  bond distance:  H          O            0.994153
  bond distance:  H          O            0.998113
  bond distance:  H          O            1.001103


  Bond angles (degrees):
  ----------------------

                  atom 1     atom 2     atom 3         angle
                  ------     ------     ------         -----
  bond angle:     H          N          H            107.372
  bond angle:     H          N          H            109.821
  bond angle:     H          N          H            109.521
  bond angle:     H          O          H            103.733
  bond angle:     H          O          H            103.385
  bond angle:     H          O          H            114.411
  bond angle:     H          O          H            114.102




 Principal moments of inertia (u*A**2) and principal axes
 --------------------------------------------------------

   IA     235.130813          0.228877    0.332333    0.914970
   IB     523.144408          0.880921    0.329258   -0.339952
   IC     570.294776         -0.414239    0.883823   -0.217400


 Rotational constants
 --------------------

               A                   B                   C

           2149.3525            966.0411            886.1716 MHz
            0.071695            0.032224            0.029560 cm-1


@  Nuclear repulsion energy :  185.617522540833 Hartree

  Reading potential input file for polarizable embedding calculation
 
    .------------------------------------------------.
    | Information from polarizable embedding library |
    `------------------------------------------------´

      Number of classical sites:    177

      Multipole moments upto 0th order.

      Dipole-dipole polarizabilities.

      Iterative solver for induced moments will be used
      with convergence threshold: 1.0E-08
      Total charge of classical region:    0.0000
 


                     .---------------------------------------.
                     | Starting in Integral Section (HERMIT) |
                     `---------------------------------------'



 ***************************************************************************************
 ****************** Output from **INTEGRALS input processing (HERMIT) ******************
 ***************************************************************************************



    *************************************************************************
    ****************** Output from HERMIT input processing ******************
    *************************************************************************


 Default print level:        1

 * Nuclear model: Point charge

 Calculation of one- and two-electron Hamiltonian integrals.

 The following one-electron property integrals are calculated as requested:
          - overlap integrals
          - dipole length integrals

 Center of mass  (bohr):      0.385134694563      1.030311607711     -0.269381534666
 Operator center (bohr):      0.000000000000      0.000000000000      0.000000000000
 Gauge origin    (bohr):      0.000000000000      0.000000000000      0.000000000000
 Dipole origin   (bohr):      0.000000000000      0.000000000000      0.000000000000


     ************************************************************************
     ************************** Output from HERINT **************************
     ************************************************************************



                      Nuclear contribution to dipole moments
                      --------------------------------------

                 au               Debye          C m (/(10**-30)

      x     18.64167390        47.38240581       158.05069322
      y     49.90326201       126.84143196       423.09747484
      z    -12.11905552       -30.80356463      -102.74963165


  Time used in POPOVLP    is       0.14 seconds
  Time used in QUADRUP    is       0.12 seconds

 Threshold for neglecting two-electron integrals:  1.00D-12
 HERMIT - Number of two-electron integrals written:    39116170 ( 43.8% )
 HERMIT - Megabytes written:                            447.900

  Time used in TWOINT     is       9.09 seconds
  Total CPU  time used in HERMIT:   9.68 seconds
  Total wall time used in HERMIT:   6.40 seconds


                        .----------------------------------.
                        | End of Integral Section (HERMIT) |
                        `----------------------------------'



                   .--------------------------------------------.
                   | Starting in Wave Function Section (SIRIUS) |
                   `--------------------------------------------'

 INPUT: SIMPLE =  F
NCCEXCI for singlet:   15
 CCSD_INPUT: core-val requested
 Requested number of core orbs per sym
                     1
 Indices of requested core orbs
                     1

 *** Output from Huckel module :

     Using EWMO model:          T
     Using EHT  model:          F
     Number of Huckel orbitals each symmetry:   36

 EWMO - Energy Weighted Maximum Overlap - is a Huckel type method,
        which normally is better than Extended Huckel Theory.
 Reference: Linderberg and Ohrn, Propagators in Quantum Chemistry (Wiley, 1973)

 Huckel EWMO eigenvalues for symmetry :  1
          -20.684516     -20.684419     -20.684305     -20.684062     -15.675136
           -1.763698      -1.595028      -1.577440      -1.570817      -1.451688
           -0.814194      -0.806779      -0.800425      -0.778485      -0.754556
           -0.721361      -0.698201      -0.688679      -0.664139      -0.647023
           -0.616183      -0.610691      -0.608511      -0.585827      -0.501427
           -0.260081      -0.246580      -0.242815      -0.221036      -0.179724
           -0.179344      -0.178466      -0.174385      -0.151105      -0.142363
           -0.132313

 **********************************************************************
 *SIRIUS* a direct, restricted step, second order MCSCF program       *
 **********************************************************************

 
     Date and time (Linux)  : Thu Dec 20 05:47:46 2018
     Host name              : s71p32.deic.sdu.dk                      

 Title lines from ".mol" input file:
                                                                             
                                                                             

 Print level on unit LUPRI =   2 is   0
 Print level on unit LUW4  =   2 is  11

@    (Integral direct) CC calculation.

@    This is a combination run starting with
@              a restricted, closed shell Hartree-Fock calculation


 Initial molecular orbitals are obtained according to
 ".MOSTART EWMO  " input option

@    QM part is embedded in an environment :

@         Model: PE

     Wave function specification
     ============================

     For the specification of the Coupled Cluster: see later.


     Wave function environment is modeled using the
     polarizable embedding model (PE library).

@    Wave function type        --- PE-CC ---
@    Number of closed shell electrons          50
@    Number of electrons in active shells       0
@    Total charge of the molecule               0

@    Spin multiplicity and 2 M_S                1         0
@    Total number of symmetries                 1 (point group: C1 )
@    Reference state symmetry                   1 (irrep name : A  )

     Orbital specifications
     ======================
@    Abelian symmetry species          All |    1
@                                          |  A  
                                       --- |  ---
@    Occupied SCF orbitals              25 |   25
@    Secondary orbitals                138 |  138
@    Total number of orbitals          163 |  163
@    Number of basis functions         163 |  163

     Optimization information
     ========================
@    Number of configurations                 1
@    Number of orbital rotations           3450
     ------------------------------------------
@    Total number of variables             3451

     Maximum number of Fock   iterations      0
     Maximum number of DIIS   iterations     60
     Maximum number of QC-SCF iterations     60
     Threshold for SCF convergence     1.00D-07


 Changes of defaults for CC:
 ---------------------------


 -Implicit frozen core calculation
 -Excitation energies calculated
 -One-photon absorption strengths will be calculated
 -Oscillator strengths calculated
  
* Read MO coefficients from SIRIUS.RST with label "NEWORB  " and header info: 20Dec18  REORTHO 


 ***********************************************
 ***** DIIS acceleration of SCF iterations *****
 ***********************************************

 C1-DIIS algorithm; max error vectors =    8
 -----------------------------------------------------------------------------

 *** DIIS iteration number    1
 RDSUPM called. NFMAT, ISYMDM(1:NFMAT)                     1
                     1

Calculating AOSUPINT
     (Precalculated AO two-electron integrals are transformed to P-supermatrix elements.
      Threshold for discarding integrals :  1.00D-12 )
  CPU  time used in FORMSUP    is   4.26 seconds
  WALL time used in FORMSUP    is   8.75 seconds

 ITDIIS, energy, error norm, change in energy, scr.thr., difden:
@ DIIS iter.   1    -359.935210176        3.85743D+00   -3.60D+02  -20    F

 (DIIS_RED) Control Parameters C2DIIS =         F NEVC =    1


 (DIIS_RED) B matrix:

               Column   1
       1      14.87980369
    ==== End of matrix output ====

 DIIS C vector; C2DIIS = F, LAMBDA = -1.49D+01
    1.000000
* Read MO coefficients from SIRIUS.RST with label "NEWORB  " and header info: 20Dec18  DIIS   1
      Virial theorem: -V/T =      1.997833
@    MULPOP   N      -0.59; H       0.17; H       0.21; H       0.25; O      -0.62; O      -0.92; O      -0.59; O      -0.59; H       0.32; H       0.33; 
@             H       0.32; H       0.42; H       0.33; H       0.31; H       0.31; H       0.34; 
   1  Level shift: doubly occupied orbital energies shifted by -2.00D-01

 DIIS Fock eigenvalues in symmetry 1
      -20.73007      -20.71425      -20.68251      -20.43842      -16.07082
       -1.54119       -1.53819       -1.50923       -1.50133       -1.40886
       -1.00626       -0.99037       -0.93630       -0.93536       -0.88910
       -0.88796       -0.79193       -0.77854       -0.75949       -0.75804
       -0.74647       -0.74147       -0.70764       -0.65937       -0.62052
        0.06118        0.10115        0.11412        0.17238        0.17974
        0.19477        0.21769        0.22491        0.24237        0.25056
        0.27050        0.27883        0.29085        0.30302        0.31385
        0.32415        0.39135        0.44489        0.52642        0.53853
        0.55160        0.56286        0.56602        0.58722        0.61384
        0.64099        0.64639        0.68016        0.77158        0.89621
        0.91818        0.94451        0.96206        1.00634        1.01549
        1.03563        1.06567        1.08030        1.09092        1.11659
        1.12234        1.14868        1.16219        1.19939        1.21785
        1.24621        1.29016        1.36611        1.39794        1.42959
        1.43752        1.45961        1.47896        1.50716        1.52258
        1.56860        1.60088        1.64932        1.67946        1.69522
        1.71466        1.73482        1.75890        1.76887        1.78355
        1.82470        1.85733        1.89272        1.90246        2.00540
        2.05304        2.16302        2.18864        2.20845        2.21270
        2.23126        2.27406        2.28367        2.34885        2.36740
        2.41274        2.59217        2.61410        2.63476        2.64849
        2.69015        2.71124        2.73379        2.78625        2.78972
        2.80474        2.89245        2.90254        2.91227        3.11043
        3.15867        3.34919        3.35399        3.37160        3.38209
        3.47041        3.48480        3.51043        3.51493        3.54526
        3.55845        3.56948        3.60673        3.67114        3.74991
        3.99274        4.00463        4.01823        4.03333        4.13174
        4.14410        4.23675        4.24803        4.64681        5.05767
        5.15748        5.29552        5.38260        5.39733        5.51956
        5.70215        5.73585        5.80014        5.93835        6.09085
        6.10241        6.10433        6.30546       36.80381       51.53204
       51.55594       51.58863       51.87945
 Time used in FCKEIG, thr_jaco:   1.83D-01  4.60D-02  1.64D-04
 CPU and wall times used in FCKEIG, THR_FCKEIG:   1.84D-01  4.60D-02  3.86D-02
 -----------------------------------------------------------------------------

 *** DIIS iteration number    2
 RDSUPM called. NFMAT, ISYMDM(1:NFMAT)                     1
                     1

 ITDIIS, energy, error norm, change in energy, scr.thr., difden:
@ DIIS iter.   2    -360.732108270        1.04397D+00   -7.97D-01  -20    F

 (DIIS_RED) Control Parameters C2DIIS =         F NEVC =    2


 (DIIS_RED) B matrix:

               Column   1     Column   2
       1      14.87980369
       2       0.60415034     1.08987929
    ==== End of matrix output ====

 DIIS C vector; C2DIIS = F, LAMBDA = -1.07D+00
    0.032905    0.967095
* Read MO coefficients from SIRIUS.RST with label "NEWORB  " and header info: 20Dec18  DIIS   2
      Virial theorem: -V/T =      2.004458
@    MULPOP   N      -1.00; H       0.27; H       0.30; H       0.36; O      -0.53; O      -0.72; O      -0.61; O      -0.54; H       0.28; H       0.29; 
@             H       0.27; H       0.41; H       0.35; H       0.30; H       0.30; H       0.29; 
   2  Level shift: doubly occupied orbital energies shifted by -1.00D-01

 DIIS Fock eigenvalues in symmetry 1
      -20.73951      -20.69287      -20.67871      -20.64209      -15.50433
       -1.43985       -1.43408       -1.42431       -1.40188       -1.22630
       -0.82177       -0.81385       -0.78449       -0.76499       -0.73919
       -0.72102       -0.70071       -0.67898       -0.67753       -0.65687
       -0.63676       -0.62856       -0.62677       -0.58823       -0.51143
        0.08367        0.11738        0.12451        0.19561        0.19933
        0.21557        0.24091        0.25861        0.26188        0.26686
        0.28872        0.29660        0.32095        0.33528        0.35334
        0.37383        0.43091        0.46228        0.56145        0.57264
        0.58378        0.59426        0.60677        0.62400        0.64946
        0.67190        0.71263        0.71955        0.85448        0.95793
        0.97718        0.99259        1.01079        1.03062        1.03689
        1.06346        1.08572        1.10183        1.10952        1.14593
        1.14766        1.16783        1.17270        1.19678        1.29713
        1.32307        1.36202        1.40627        1.43198        1.47502
        1.48663        1.51443        1.51976        1.54002        1.57447
        1.59707        1.64425        1.68567        1.70610        1.74114
        1.75258        1.77415        1.79161        1.82188        1.83867
        1.88487        1.92429        1.95975        1.97748        2.10145
        2.12865        2.24363        2.25739        2.25755        2.30708
        2.32607        2.33406        2.33717        2.37923        2.41375
        2.50896        2.65603        2.67945        2.69213        2.71460
        2.74814        2.77126        2.79843        2.85362        2.86809
        2.89656        2.96191        3.07527        3.09069        3.23410
        3.30736        3.37653        3.39781        3.43437        3.48566
        3.49029        3.50931        3.51370        3.53328        3.57087
        3.58040        3.59810        3.61826        3.64741        3.69450
        3.95224        4.01165        4.04210        4.04425        4.15038
        4.16294        4.17778        4.25496        4.79727        5.29191
        5.30065        5.33903        5.37871        5.38628        5.43182
        5.70273        5.72082        5.74421        5.80875        6.10424
        6.10773        6.11484        6.14145       37.26085       51.47916
       51.48352       51.48866       51.53203
 Time used in FCKEIG, thr_jaco:   1.24D-01  3.10D-02  4.44D-05
 CPU and wall times used in FCKEIG, THR_FCKEIG:   1.24D-01  3.10D-02  1.04D-02
 -----------------------------------------------------------------------------

 *** DIIS iteration number    3
 RDSUPM called. NFMAT, ISYMDM(1:NFMAT)                     1
                     1

 ITDIIS, energy, error norm, change in energy, scr.thr., difden:
@ DIIS iter.   3    -360.798065916        4.03715D-01   -6.60D-02  -20    F

 (DIIS_RED) Control Parameters C2DIIS =         F NEVC =    3


 (DIIS_RED) B matrix:

               Column   1     Column   2     Column   3
       1      14.87980369
       2       0.60415034     1.08987929
       3       0.82725389    -0.01683139     0.16298592
    ==== End of matrix output ====

 DIIS C vector; C2DIIS = F, LAMBDA = -1.05D-01
   -0.049169    0.138115    0.911054
* Read MO coefficients from SIRIUS.RST with label "NEWORB  " and header info: 20Dec18  DIIS   3
      Virial theorem: -V/T =      2.001815
@    MULPOP   N      -0.93; H       0.24; H       0.26; H       0.34; O      -0.58; O      -0.84; O      -0.67; O      -0.59; H       0.30; H       0.31; 
@             H       0.34; H       0.48; H       0.38; H       0.32; H       0.32; H       0.31; 
   3  Level shift: doubly occupied orbital energies shifted by -5.00D-02

 DIIS Fock eigenvalues in symmetry 1
      -20.60406      -20.60040      -20.56295      -20.51923      -15.59554
       -1.37322       -1.37249       -1.34038       -1.31913       -1.21166
       -0.75508       -0.75183       -0.71151       -0.70281       -0.69607
       -0.68879       -0.61584       -0.61004       -0.60389       -0.59257
       -0.56653       -0.55558       -0.51851       -0.51387       -0.47277
        0.08691        0.11992        0.12721        0.19868        0.20337
        0.22129        0.24461        0.26167        0.26617        0.27171
        0.29540        0.30071        0.32375        0.33947        0.35332
        0.37496        0.43538        0.46978        0.57355        0.58510
        0.59319        0.60577        0.61298        0.63165        0.65865
        0.68098        0.71161        0.72412        0.85518        0.97333
        0.99214        1.00399        1.03521        1.03891        1.04546
        1.05531        1.09659        1.11339        1.12109        1.15426
        1.16257        1.17869        1.19047        1.21254        1.29584
        1.32978        1.36144        1.41415        1.44360        1.47918
        1.49805        1.52198        1.53317        1.55525        1.58471
        1.61388        1.65760        1.69930        1.72263        1.75837
        1.76322        1.78851        1.80190        1.83381        1.84848
        1.89266        1.93223        1.96726        1.98300        2.10562
        2.13483        2.25822        2.26829        2.27029        2.30055
        2.33520        2.34344        2.34862        2.39436        2.42791
        2.51464        2.66772        2.69189        2.70259        2.72527
        2.76043        2.77999        2.80695        2.86367        2.87637
        2.90266        2.97202        3.05255        3.06710        3.23810
        3.28911        3.39502        3.42092        3.49555        3.50305
        3.52588        3.52804        3.54687        3.55348        3.55793
        3.58302        3.60735        3.61370        3.71084        3.71384
        4.00259        4.02995        4.06069        4.06882        4.17421
        4.18510        4.23331        4.27506        4.76800        5.27911
        5.31828        5.37496        5.39464        5.40495        5.42716
        5.72280        5.74968        5.80585        5.85841        6.12918
        6.13580        6.13806        6.22976       37.12424       51.51067
       51.52265       51.56087       51.65446
 Time used in FCKEIG, thr_jaco:   1.07D-01  2.70D-02  1.72D-05
 CPU and wall times used in FCKEIG, THR_FCKEIG:   1.07D-01  2.70D-02  4.04D-03
 -----------------------------------------------------------------------------

 *** DIIS iteration number    4
 RDSUPM called. NFMAT, ISYMDM(1:NFMAT)                     1
                     1

 ITDIIS, energy, error norm, change in energy, scr.thr., difden:
@ DIIS iter.   4    -360.808614590        1.07079D-01   -1.05D-02  -20    F

 (DIIS_RED) Control Parameters C2DIIS =         F NEVC =    4


 (DIIS_RED) B matrix:

               Column   1     Column   2     Column   3     Column   4
       1      14.87980369
       2       0.60415034     1.08987929
       3       0.82725389    -0.01683139     0.16298592
       4       0.02636517     0.08947643    -0.00273927     0.01146592
    ==== End of matrix output ====

 DIIS C vector; C2DIIS = F, LAMBDA = -4.62D-03
   -0.000504   -0.080294    0.040132    1.040666
* Read MO coefficients from SIRIUS.RST with label "NEWORB  " and header info: 20Dec18  DIIS   4
      Virial theorem: -V/T =      2.002810
@    MULPOP   N      -1.01; H       0.26; H       0.28; H       0.36; O      -0.59; O      -0.82; O      -0.69; O      -0.60; H       0.31; H       0.32; 
@             H       0.34; H       0.49; H       0.39; H       0.33; H       0.33; H       0.32; 
   4  Level shift: doubly occupied orbital energies shifted by -2.50D-02

 DIIS Fock eigenvalues in symmetry 1
      -20.58300      -20.58251      -20.54236      -20.53403      -15.55332
       -1.35058       -1.35003       -1.31804       -1.30663       -1.18042
       -0.73177       -0.72914       -0.68423       -0.67832       -0.67385
       -0.65921       -0.59014       -0.58829       -0.58269       -0.56734
       -0.53947       -0.52887       -0.49775       -0.49146       -0.44392
        0.08767        0.12023        0.12817        0.19952        0.20277
        0.22143        0.24421        0.26285        0.26677        0.27233
        0.29490        0.30072        0.32448        0.33973        0.35544
        0.37772        0.43743        0.47066        0.57366        0.58414
        0.59219        0.60519        0.61326        0.63180        0.65722
        0.68085        0.71508        0.72494        0.85835        0.97408
        0.99382        1.00505        1.03597        1.03908        1.04637
        1.05839        1.09715        1.11311        1.12112        1.15497
        1.16197        1.17816        1.18757        1.20987        1.29927
        1.33054        1.36531        1.41530        1.44385        1.48115
        1.49650        1.52284        1.53151        1.55365        1.58307
        1.61157        1.65713        1.69760        1.72060        1.75669
        1.76173        1.78709        1.80214        1.83347        1.84764
        1.89340        1.93331        1.96732        1.98465        2.10927
        2.13720        2.25702        2.26770        2.26829        2.30498
        2.33786        2.34206        2.34668        2.39049        2.42531
        2.51756        2.66604        2.69107        2.70138        2.72499
        2.75862        2.78187        2.80681        2.86207        2.87790
        2.90585        2.97380        3.05989        3.07454        3.24155
        3.29518        3.39458        3.42046        3.48581        3.50257
        3.52653        3.52754        3.54647        3.55050        3.55677
        3.58728        3.60740        3.61441        3.69961        3.71321
        3.99358        4.02900        4.05986        4.06764        4.17371
        4.18461        4.22327        4.27460        4.77226        5.28832
        5.31743        5.37308        5.39388        5.40113        5.41860
        5.72163        5.74751        5.79818        5.84594        6.12696
        6.13262        6.13551        6.21116       37.14136       51.50692
       51.51584       51.55651       51.61555
 Time used in FCKEIG, thr_jaco:   9.95D-02  2.50D-02  4.56D-06
 CPU and wall times used in FCKEIG, THR_FCKEIG:   9.96D-02  2.50D-02  1.07D-03
 -----------------------------------------------------------------------------

 *** DIIS iteration number    5
 RDSUPM called. NFMAT, ISYMDM(1:NFMAT)                     1
                     1

 ITDIIS, energy, error norm, change in energy, scr.thr., difden:
@ DIIS iter.   5    -360.809802873        2.71678D-02   -1.19D-03  -20    F

 (DIIS_RED) Control Parameters C2DIIS =         F NEVC =    5


 (DIIS_RED) B matrix:

               Column   1     Column   2     Column   3     Column   4     Column   5
       1      14.87980369
       2       0.60415034     1.08987929
       3       0.82725389    -0.01683139     0.16298592
       4       0.02636517     0.08947643    -0.00273927     0.01146592
       5       0.01654554     0.00765445     0.00551848     0.00112195     0.00073809
    ==== End of matrix output ====

 DIIS C vector; C2DIIS = F, LAMBDA = -5.08D-04
    0.001468   -0.006837   -0.041503   -0.020039    1.066910
* Read MO coefficients from SIRIUS.RST with label "NEWORB  " and header info: 20Dec18  DIIS   5
      Virial theorem: -V/T =      2.002431
@    MULPOP   N      -1.02; H       0.26; H       0.28; H       0.36; O      -0.59; O      -0.84; O      -0.70; O      -0.61; H       0.31; H       0.32; 
@             H       0.35; H       0.50; H       0.40; H       0.33; H       0.34; H       0.32; 
   5  Level shift: doubly occupied orbital energies shifted by -1.25D-02

 DIIS Fock eigenvalues in symmetry 1
      -20.56995      -20.56831      -20.52973      -20.51287      -15.53213
       -1.33797       -1.33693       -1.30548       -1.29113       -1.16531
       -0.71917       -0.71712       -0.67004       -0.66567       -0.65944
       -0.64482       -0.57744       -0.57378       -0.56912       -0.55508
       -0.52596       -0.51485       -0.48167       -0.47796       -0.42832
        0.08785        0.12030        0.12837        0.19981        0.20264
        0.22152        0.24413        0.26320        0.26705        0.27252
        0.29508        0.30063        0.32462        0.33992        0.35591
        0.37831        0.43813        0.47135        0.57381        0.58444
        0.59200        0.60548        0.61324        0.63196        0.65714
        0.68143        0.71593        0.72547        0.85945        0.97535
        0.99495        1.00623        1.03751        1.04030        1.04740
        1.05988        1.09773        1.11373        1.12132        1.15523
        1.16268        1.17855        1.18835        1.21050        1.30037
        1.33107        1.36644        1.41586        1.44433        1.48185
        1.49608        1.52324        1.53140        1.55408        1.58283
        1.61201        1.65715        1.69752        1.72127        1.75727
        1.76129        1.78731        1.80231        1.83333        1.84741
        1.89390        1.93357        1.96752        1.98563        2.11024
        2.13795        2.25671        2.26732        2.26798        2.30629
        2.33867        2.34204        2.34664        2.39146        2.42495
        2.51890        2.66567        2.69081        2.70094        2.72549
        2.75851        2.78230        2.80644        2.86155        2.87815
        2.90640        2.97409        3.06208        3.07676        3.24301
        3.29735        3.39475        3.42125        3.48883        3.50301
        3.52736        3.52817        3.54914        3.55093        3.55886
        3.58935        3.60771        3.61554        3.70260        3.71319
        3.99688        4.02893        4.05979        4.06816        4.17409
        4.18500        4.22663        4.27459        4.77659        5.29212
        5.31817        5.37730        5.39665        5.40230        5.42098
        5.72195        5.74849        5.80019        5.84865        6.12699
        6.13335        6.13539        6.21555       37.14983       51.50748
       51.51750       51.55670       51.62404
 Time used in FCKEIG, thr_jaco:   9.52D-02  2.30D-02  1.16D-06
 CPU and wall times used in FCKEIG, THR_FCKEIG:   9.54D-02  2.30D-02  2.72D-04
 -----------------------------------------------------------------------------

 *** DIIS iteration number    6
 RDSUPM called. NFMAT, ISYMDM(1:NFMAT)                     1
                     1

 ITDIIS, energy, error norm, change in energy, scr.thr., difden:
@ DIIS iter.   6    -360.809901369        1.02999D-02   -9.85D-05  -20    F

 (DIIS_RED) Control Parameters C2DIIS =         F NEVC =    6


 (DIIS_RED) B matrix:

               Column   1     Column   2     Column   3     Column   4     Column   5     Column   6
       1      14.87980369
       2       0.60415034     1.08987929
       3       0.82725389    -0.01683139     0.16298592
       4       0.02636517     0.08947643    -0.00273927     0.01146592
       5       0.01654554     0.00765445     0.00551848     0.00112195     0.00073809
       6      -0.00143881    -0.00007955     0.00090782     0.00046653     0.00006992     0.00010609
    ==== End of matrix output ====

 DIIS C vector; C2DIIS = F, LAMBDA = -4.16D-05
    0.000620    0.008462   -0.014908   -0.122488    0.160762    0.967552
* Read MO coefficients from SIRIUS.RST with label "NEWORB  " and header info: 20Dec18  DIIS   6
      Virial theorem: -V/T =      2.002587
@    MULPOP   N      -1.02; H       0.25; H       0.28; H       0.36; O      -0.60; O      -0.84; O      -0.70; O      -0.61; H       0.31; H       0.32; 
@             H       0.35; H       0.50; H       0.40; H       0.33; H       0.34; H       0.32; 

 DIIS Fock eigenvalues in symmetry 1
      -20.55757      -20.55620      -20.51705      -20.50296      -15.52385
       -1.32548       -1.32450       -1.29285       -1.27936       -1.15417
       -0.70698       -0.70492       -0.65845       -0.65343       -0.64799
       -0.63341       -0.56513       -0.56192       -0.55705       -0.54272
       -0.51322       -0.50223       -0.46953       -0.46517       -0.41693
        0.08783        0.12029        0.12840        0.19977        0.20254
        0.22144        0.24406        0.26309        0.26697        0.27241
        0.29495        0.30052        0.32454        0.33980        0.35566
        0.37805        0.43790        0.47111        0.57365        0.58418
        0.59182        0.60520        0.61306        0.63177        0.65696
        0.68110        0.71554        0.72515        0.85902        0.97508
        0.99469        1.00597        1.03715        1.04005        1.04727
        1.05915        1.09748        1.11348        1.12115        1.15505
        1.16236        1.17835        1.18803        1.21025        1.29982
        1.33083        1.36586        1.41566        1.44409        1.48144
        1.49579        1.52290        1.53122        1.55376        1.58260
        1.61163        1.65691        1.69725        1.72088        1.75691
        1.76101        1.78702        1.80202        1.83309        1.84709
        1.89344        1.93322        1.96714        1.98503        2.10974
        2.13750        2.25640        2.26702        2.26770        2.30547
        2.33807        2.34168        2.34622        2.39079        2.42478
        2.51823        2.66540        2.69050        2.70059        2.72498
        2.75813        2.78185        2.80606        2.86124        2.87776
        2.90594        2.97371        3.06083        3.07551        3.24227
        3.29621        3.39468        3.42108        3.48798        3.50288
        3.52712        3.52770        3.54834        3.55074        3.55771
        3.58832        3.60749        3.61508        3.70173        3.71322
        3.99581        4.02895        4.05965        4.06796        4.17395
        4.18486        4.22555        4.27463        4.77454        5.29020
        5.31800        5.37590        5.39548        5.40201        5.42036
        5.72181        5.74825        5.79963        5.84783        6.12682
        6.13309        6.13540        6.21412       37.14571       51.50735
       51.51713       51.55685       51.62149
 Time used in FCKEIG, thr_jaco:   9.31D-02  2.30D-02  4.38D-07
 CPU and wall times used in FCKEIG, THR_FCKEIG:   9.32D-02  2.30D-02  1.03D-04
 -----------------------------------------------------------------------------

 *** DIIS iteration number    7
 RDSUPM called. NFMAT, ISYMDM(1:NFMAT)                     1
                     1

 ITDIIS, energy, error norm, change in energy, scr.thr., difden:
@ DIIS iter.   7    -360.809913131        2.33037D-03   -1.18D-05  -20    F

 (DIIS_RED) Control Parameters C2DIIS =         F NEVC =    7


 (DIIS_RED) B matrix:

               Column   1     Column   2     Column   3     Column   4     Column   5     Column   6
       1      14.87980369
       2       0.60415034     1.08987929
       3       0.82725389    -0.01683139     0.16298592
       4       0.02636517     0.08947643    -0.00273927     0.01146592
       5       0.01654554     0.00765445     0.00551848     0.00112195     0.00073809
       6      -0.00143881    -0.00007955     0.00090782     0.00046653     0.00006992     0.00010609
       7       0.00040321    -0.00007432     0.00008242     0.00000195     0.00004208     0.00000366

               Column   7
       7       0.00000543
    ==== End of matrix output ====

 DIIS C vector; C2DIIS = F, LAMBDA = -1.44D-06
   -0.000233   -0.001057    0.005791    0.027072   -0.124107   -0.118988    1.211521
* Read MO coefficients from SIRIUS.RST with label "NEWORB  " and header info: 20Dec18  DIIS   7
      Virial theorem: -V/T =      2.002560
@    MULPOP   N      -1.02; H       0.25; H       0.28; H       0.36; O      -0.60; O      -0.84; O      -0.70; O      -0.61; H       0.31; H       0.32; 
@             H       0.35; H       0.50; H       0.40; H       0.33; H       0.34; H       0.32; 

 DIIS Fock eigenvalues in symmetry 1
      -20.55764      -20.55619      -20.51719      -20.50242      -15.52338
       -1.32546       -1.32445       -1.29285       -1.27908       -1.15400
       -0.70700       -0.70498       -0.65833       -0.65343       -0.64786
       -0.63333       -0.56518       -0.56180       -0.55702       -0.54282
       -0.51317       -0.50212       -0.46921       -0.46511       -0.41670
        0.08784        0.12030        0.12842        0.19979        0.20254
        0.22145        0.24406        0.26312        0.26700        0.27244
        0.29499        0.30052        0.32456        0.33983        0.35567
        0.37808        0.43796        0.47120        0.57367        0.58423
        0.59181        0.60526        0.61308        0.63180        0.65698
        0.68117        0.71562        0.72521        0.85909        0.97518
        0.99478        1.00605        1.03726        1.04014        1.04734
        1.05925        1.09752        1.11354        1.12115        1.15507
        1.16242        1.17838        1.18810        1.21030        1.29991
        1.33088        1.36593        1.41572        1.44413        1.48150
        1.49575        1.52293        1.53122        1.55385        1.58258
        1.61173        1.65691        1.69725        1.72096        1.75700
        1.76098        1.78705        1.80205        1.83307        1.84709
        1.89352        1.93325        1.96717        1.98512        2.10981
        2.13758        2.25637        2.26699        2.26767        2.30555
        2.33812        2.34167        2.34622        2.39088        2.42473
        2.51835        2.66538        2.69048        2.70056        2.72503
        2.75816        2.78188        2.80602        2.86121        2.87776
        2.90596        2.97386        3.06097        3.07565        3.24239
        3.29634        3.39467        3.42111        3.48824        3.50289
        3.52715        3.52776        3.54856        3.55077        3.55783
        3.58845        3.60750        3.61514        3.70200        3.71321
        3.99608        4.02892        4.05964        4.06799        4.17398
        4.18488        4.22583        4.27462        4.77485        5.29041
        5.31800        5.37618        5.39562        5.40204        5.42050
        5.72180        5.74828        5.79975        5.84801        6.12679
        6.13311        6.13535        6.21446       37.14617       51.50728
       51.51713       51.55672       51.62202
 Time used in FCKEIG, thr_jaco:   9.35D-02  2.40D-02  9.92D-08
 CPU and wall times used in FCKEIG, THR_FCKEIG:   9.36D-02  2.40D-02  2.33D-05
 -----------------------------------------------------------------------------

 *** DIIS iteration number    8
 RDSUPM called. NFMAT, ISYMDM(1:NFMAT)                     1
                     1

 ITDIIS, energy, error norm, change in energy, scr.thr., difden:
@ DIIS iter.   8    -360.809913839        3.99015D-04   -7.08D-07  -20    F

 (DIIS_RED) Control Parameters C2DIIS =         F NEVC =    8


 (DIIS_RED) B matrix:

               Column   1     Column   2     Column   3     Column   4     Column   5     Column   6
       1      14.87980369
       2       0.60415034     1.08987929
       3       0.82725389    -0.01683139     0.16298592
       4       0.02636517     0.08947643    -0.00273927     0.01146592
       5       0.01654554     0.00765445     0.00551848     0.00112195     0.00073809
       6      -0.00143881    -0.00007955     0.00090782     0.00046653     0.00006992     0.00010609
       7       0.00040321    -0.00007432     0.00008242     0.00000195     0.00004208     0.00000366
       8       0.00011864    -0.00000468     0.00000478     0.00000269     0.00000098     0.00000172

               Column   7     Column   8
       7       0.00000543
       8       0.00000043     0.00000016
    ==== End of matrix output ====

 DIIS C vector; C2DIIS = F, LAMBDA = -9.92D-08
   -0.000005   -0.000111   -0.000191    0.000377    0.010560   -0.019977   -0.139405    1.148752
* Read MO coefficients from SIRIUS.RST with label "NEWORB  " and header info: 20Dec18  DIIS   8
      Virial theorem: -V/T =      2.002572
@    MULPOP   N      -1.02; H       0.25; H       0.28; H       0.36; O      -0.60; O      -0.84; O      -0.70; O      -0.61; H       0.31; H       0.32; 
@             H       0.35; H       0.50; H       0.40; H       0.33; H       0.34; H       0.32; 

 DIIS Fock eigenvalues in symmetry 1
      -20.55760      -20.55614      -20.51709      -20.50246      -15.52340
       -1.32544       -1.32443       -1.29281       -1.27909       -1.15401
       -0.70698       -0.70496       -0.65833       -0.65340       -0.64787
       -0.63333       -0.56519       -0.56182       -0.55702       -0.54281
       -0.51315       -0.50210       -0.46921       -0.46507       -0.41671
        0.08784        0.12029        0.12842        0.19979        0.20254
        0.22145        0.24406        0.26312        0.26700        0.27244
        0.29499        0.30052        0.32457        0.33983        0.35567
        0.37808        0.43796        0.47119        0.57368        0.58423
        0.59181        0.60525        0.61309        0.63181        0.65698
        0.68117        0.71561        0.72520        0.85909        0.97518
        0.99478        1.00605        1.03726        1.04015        1.04735
        1.05924        1.09753        1.11354        1.12115        1.15508
        1.16242        1.17839        1.18811        1.21031        1.29991
        1.33088        1.36592        1.41573        1.44413        1.48150
        1.49575        1.52292        1.53123        1.55384        1.58259
        1.61172        1.65691        1.69725        1.72096        1.75699
        1.76098        1.78705        1.80205        1.83307        1.84708
        1.89350        1.93325        1.96717        1.98511        2.10980
        2.13757        2.25638        2.26699        2.26768        2.30554
        2.33811        2.34167        2.34622        2.39088        2.42475
        2.51833        2.66539        2.69048        2.70056        2.72503
        2.75816        2.78187        2.80602        2.86121        2.87775
        2.90595        2.97382        3.06096        3.07564        3.24237
        3.29633        3.39469        3.42113        3.48822        3.50292
        3.52716        3.52777        3.54855        3.55080        3.55783
        3.58844        3.60751        3.61515        3.70199        3.71324
        3.99606        4.02895        4.05965        4.06800        4.17399
        4.18490        4.22582        4.27466        4.77482        5.29039
        5.31802        5.37617        5.39562        5.40208        5.42051
        5.72182        5.74830        5.79977        5.84802        6.12681
        6.13313        6.13540        6.21444       37.14614       51.50732
       51.51718       51.55681       51.62198
 Time used in FCKEIG, thr_jaco:   9.34D-02  2.30D-02  1.70D-08
 CPU and wall times used in FCKEIG, THR_FCKEIG:   9.35D-02  2.30D-02  3.99D-06
 -----------------------------------------------------------------------------

 *** DIIS iteration number    9
 RDSUPM called. NFMAT, ISYMDM(1:NFMAT)                     1
                     1

 ITDIIS, energy, error norm, change in energy, scr.thr., difden:
@ DIIS iter.   9    -360.809913861        1.29584D-04   -2.13D-08  -20    F

 (DIIS_RED) Control Parameters C2DIIS =         F NEVC =    8


 (DIIS_RED) B matrix:

               Column   1     Column   2     Column   3     Column   4     Column   5     Column   6
       1       0.00000002
       2      -0.00000306     1.08987929
       3      -0.00000032    -0.01683139     0.16298592
       4       0.00000004     0.08947643    -0.00273927     0.01146592
       5       0.00000016     0.00765445     0.00551848     0.00112195     0.00073809
       6       0.00000006    -0.00007955     0.00090782     0.00046653     0.00006992     0.00010609
       7       0.00000010    -0.00007432     0.00008242     0.00000195     0.00004208     0.00000366
       8       0.00000002    -0.00000468     0.00000478     0.00000269     0.00000098     0.00000172

               Column   7     Column   8
       7       0.00000543
       8       0.00000043     0.00000016
    ==== End of matrix output ====

 DIIS C vector; C2DIIS = F, LAMBDA = -1.23D-08
    0.933644    0.000042   -0.000198   -0.001079    0.006008    0.002350   -0.068383    0.127616
* Read MO coefficients from SIRIUS.RST with label "NEWORB  " and header info: 20Dec18  DIIS   9
      Virial theorem: -V/T =      2.002573
@    MULPOP   N      -1.02; H       0.25; H       0.28; H       0.36; O      -0.60; O      -0.84; O      -0.70; O      -0.61; H       0.31; H       0.32; 
@             H       0.35; H       0.50; H       0.40; H       0.33; H       0.34; H       0.32; 

 DIIS Fock eigenvalues in symmetry 1
      -20.55762      -20.55616      -20.51714      -20.50244      -15.52341
       -1.32545       -1.32443       -1.29283       -1.27909       -1.15401
       -0.70699       -0.70496       -0.65833       -0.65341       -0.64787
       -0.63334       -0.56520       -0.56182       -0.55703       -0.54282
       -0.51316       -0.50211       -0.46920       -0.46508       -0.41671
        0.08784        0.12029        0.12842        0.19979        0.20254
        0.22145        0.24406        0.26312        0.26700        0.27244
        0.29499        0.30052        0.32457        0.33983        0.35567
        0.37807        0.43796        0.47119        0.57367        0.58423
        0.59180        0.60525        0.61308        0.63181        0.65698
        0.68117        0.71561        0.72520        0.85909        0.97517
        0.99477        1.00605        1.03726        1.04014        1.04735
        1.05924        1.09753        1.11354        1.12115        1.15508
        1.16242        1.17839        1.18811        1.21031        1.29990
        1.33088        1.36592        1.41572        1.44413        1.48150
        1.49575        1.52292        1.53122        1.55384        1.58259
        1.61172        1.65691        1.69725        1.72096        1.75699
        1.76098        1.78705        1.80205        1.83307        1.84708
        1.89351        1.93325        1.96716        1.98511        2.10980
        2.13757        2.25637        2.26699        2.26768        2.30554
        2.33811        2.34167        2.34621        2.39088        2.42474
        2.51833        2.66538        2.69048        2.70055        2.72503
        2.75816        2.78186        2.80602        2.86121        2.87775
        2.90595        2.97383        3.06095        3.07563        3.24237
        3.29633        3.39468        3.42112        3.48823        3.50290
        3.52716        3.52776        3.54855        3.55078        3.55782
        3.58844        3.60750        3.61514        3.70199        3.71323
        3.99607        4.02893        4.05964        4.06800        4.17398
        4.18489        4.22582        4.27464        4.77482        5.29039
        5.31801        5.37617        5.39561        5.40205        5.42050
        5.72180        5.74829        5.79976        5.84801        6.12680
        6.13312        6.13537        6.21445       37.14614       51.50730
       51.51716       51.55676       51.62200
 Time used in FCKEIG, thr_jaco:   1.24D-01  3.10D-02  5.52D-09
 CPU and wall times used in FCKEIG, THR_FCKEIG:   1.24D-01  3.10D-02  1.30D-06
 -----------------------------------------------------------------------------

 *** DIIS iteration number   10
 RDSUPM called. NFMAT, ISYMDM(1:NFMAT)                     1
                     1

 ITDIIS, energy, error norm, change in energy, scr.thr., difden:
@ DIIS iter.  10    -360.809913862        5.04289D-05   -1.53D-09  -20    F

 (DIIS_RED) Control Parameters C2DIIS =         F NEVC =    8


 (DIIS_RED) B matrix:

               Column   1     Column   2     Column   3     Column   4     Column   5     Column   6
       1       0.00000002
       2      -0.00000000     0.00000000
       3      -0.00000032     0.00000026     0.16298592
       4       0.00000004    -0.00000013    -0.00273927     0.01146592
       5       0.00000016     0.00000002     0.00551848     0.00112195     0.00073809
       6       0.00000006     0.00000002     0.00090782     0.00046653     0.00006992     0.00010609
       7       0.00000010     0.00000002     0.00008242     0.00000195     0.00004208     0.00000366
       8       0.00000002     0.00000001     0.00000478     0.00000269     0.00000098     0.00000172

               Column   7     Column   8
       7       0.00000543
       8       0.00000043     0.00000016
    ==== End of matrix output ====

 DIIS C vector; C2DIIS = F, LAMBDA = -8.13D-10
    0.146138    0.976814    0.000010    0.000030   -0.000616    0.001796    0.007832   -0.132003
* Read MO coefficients from SIRIUS.RST with label "NEWORB  " and header info: 20Dec18  DIIS  10
      Virial theorem: -V/T =      2.002572
@    MULPOP   N      -1.02; H       0.25; H       0.28; H       0.36; O      -0.60; O      -0.84; O      -0.70; O      -0.61; H       0.31; H       0.32; 
@             H       0.35; H       0.50; H       0.40; H       0.33; H       0.34; H       0.32; 

 DIIS Fock eigenvalues in symmetry 1
      -20.55761      -20.55615      -20.51713      -20.50244      -15.52341
       -1.32545       -1.32443       -1.29282       -1.27909       -1.15401
       -0.70698       -0.70496       -0.65833       -0.65341       -0.64787
       -0.63334       -0.56520       -0.56181       -0.55703       -0.54282
       -0.51316       -0.50210       -0.46920       -0.46508       -0.41671
        0.08784        0.12029        0.12842        0.19979        0.20254
        0.22145        0.24406        0.26312        0.26700        0.27244
        0.29499        0.30052        0.32457        0.33983        0.35567
        0.37807        0.43796        0.47119        0.57368        0.58423
        0.59180        0.60525        0.61308        0.63181        0.65698
        0.68117        0.71561        0.72520        0.85909        0.97518
        0.99478        1.00605        1.03726        1.04015        1.04735
        1.05924        1.09753        1.11354        1.12115        1.15508
        1.16242        1.17839        1.18811        1.21031        1.29990
        1.33088        1.36592        1.41572        1.44413        1.48150
        1.49575        1.52292        1.53122        1.55384        1.58259
        1.61172        1.65691        1.69725        1.72096        1.75699
        1.76098        1.78705        1.80205        1.83307        1.84708
        1.89351        1.93325        1.96717        1.98511        2.10980
        2.13757        2.25637        2.26699        2.26768        2.30554
        2.33811        2.34167        2.34621        2.39088        2.42474
        2.51833        2.66538        2.69048        2.70055        2.72503
        2.75816        2.78186        2.80602        2.86121        2.87775
        2.90595        2.97383        3.06096        3.07563        3.24237
        3.29633        3.39468        3.42112        3.48823        3.50291
        3.52716        3.52776        3.54855        3.55079        3.55782
        3.58844        3.60751        3.61515        3.70200        3.71323
        3.99607        4.02894        4.05964        4.06800        4.17399
        4.18490        4.22582        4.27465        4.77482        5.29039
        5.31802        5.37617        5.39562        5.40206        5.42051
        5.72181        5.74829        5.79976        5.84802        6.12681
        6.13312        6.13538        6.21445       37.14614       51.50731
       51.51717       51.55678       51.62200
 Time used in FCKEIG, thr_jaco:   9.28D-02  2.30D-02  2.15D-09
 CPU and wall times used in FCKEIG, THR_FCKEIG:   9.29D-02  2.30D-02  5.04D-07
 -----------------------------------------------------------------------------

 *** DIIS iteration number   11
 RDSUPM called. NFMAT, ISYMDM(1:NFMAT)                     1
                     1

 ITDIIS, energy, error norm, change in energy, scr.thr., difden:
@ DIIS iter.  11    -360.809913863        1.05971D-05   -2.37D-10  -20    F

 (DIIS_RED) Control Parameters C2DIIS =         F NEVC =    8


 (DIIS_RED) B matrix:

               Column   1     Column   2     Column   3     Column   4     Column   5     Column   6
       1       0.00000002
       2      -0.00000000     0.00000000
       3       0.00000000     0.00000000     0.00000000
       4       0.00000004    -0.00000013     0.00000005     0.01146592
       5       0.00000016     0.00000002    -0.00000003     0.00112195     0.00073809
       6       0.00000006     0.00000002     0.00000001     0.00046653     0.00006992     0.00010609
       7       0.00000010     0.00000002    -0.00000000     0.00000195     0.00004208     0.00000366
       8       0.00000002     0.00000001     0.00000000     0.00000269     0.00000098     0.00000172

               Column   7     Column   8
       7       0.00000543
       8       0.00000043     0.00000016
    ==== End of matrix output ====

 DIIS C vector; C2DIIS = F, LAMBDA = -5.06D-11
   -0.064482    0.020099    1.046973    0.000010   -0.000142    0.000010    0.003261   -0.005730
* Read MO coefficients from SIRIUS.RST with label "NEWORB  " and header info: 20Dec18  DIIS  11
      Virial theorem: -V/T =      2.002573
@    MULPOP   N      -1.02; H       0.25; H       0.28; H       0.36; O      -0.60; O      -0.84; O      -0.70; O      -0.61; H       0.31; H       0.32; 
@             H       0.35; H       0.50; H       0.40; H       0.33; H       0.34; H       0.32; 

 DIIS Fock eigenvalues in symmetry 1
      -20.55761      -20.55616      -20.51713      -20.50244      -15.52341
       -1.32545       -1.32443       -1.29282       -1.27909       -1.15401
       -0.70698       -0.70496       -0.65833       -0.65341       -0.64787
       -0.63334       -0.56520       -0.56181       -0.55703       -0.54282
       -0.51316       -0.50210       -0.46920       -0.46508       -0.41671
        0.08784        0.12029        0.12842        0.19979        0.20254
        0.22145        0.24406        0.26312        0.26700        0.27244
        0.29499        0.30052        0.32457        0.33983        0.35567
        0.37807        0.43796        0.47119        0.57368        0.58423
        0.59180        0.60525        0.61308        0.63181        0.65698
        0.68117        0.71561        0.72520        0.85909        0.97518
        0.99478        1.00605        1.03726        1.04015        1.04735
        1.05924        1.09753        1.11354        1.12115        1.15508
        1.16242        1.17839        1.18811        1.21031        1.29990
        1.33088        1.36592        1.41572        1.44413        1.48150
        1.49575        1.52292        1.53122        1.55384        1.58259
        1.61172        1.65691        1.69725        1.72096        1.75699
        1.76098        1.78705        1.80205        1.83307        1.84708
        1.89351        1.93325        1.96717        1.98511        2.10979
        2.13757        2.25637        2.26699        2.26768        2.30554
        2.33811        2.34167        2.34621        2.39088        2.42474
        2.51833        2.66538        2.69048        2.70055        2.72503
        2.75816        2.78186        2.80602        2.86121        2.87775
        2.90595        2.97383        3.06096        3.07563        3.24237
        3.29633        3.39468        3.42112        3.48823        3.50291
        3.52716        3.52776        3.54855        3.55079        3.55782
        3.58844        3.60751        3.61515        3.70200        3.71323
        3.99607        4.02894        4.05964        4.06800        4.17399
        4.18489        4.22582        4.27464        4.77482        5.29039
        5.31801        5.37617        5.39561        5.40206        5.42051
        5.72181        5.74829        5.79976        5.84802        6.12681
        6.13312        6.13538        6.21445       37.14614       51.50731
       51.51717       51.55678       51.62200
 Time used in FCKEIG, thr_jaco:   1.36D-01  3.40D-02  4.51D-10
 CPU and wall times used in FCKEIG, THR_FCKEIG:   1.36D-01  3.40D-02  1.06D-07
 -----------------------------------------------------------------------------

 *** DIIS iteration number   12
 RDSUPM called. NFMAT, ISYMDM(1:NFMAT)                     1
                     1

 ITDIIS, energy, error norm, change in energy, scr.thr., difden:
@ DIIS iter.  12    -360.809913863        2.43591D-06   -1.32D-11  -20    F

 (DIIS_RED) Control Parameters C2DIIS =         F NEVC =    8


 (DIIS_RED) B matrix:

               Column   1     Column   2     Column   3     Column   4     Column   5     Column   6
       1     1.679196D-08
       2    -2.285224D-10   2.543078D-09
       3     9.007782D-10   2.071932D-12   1.122987D-10
       4     8.746249D-11   3.806156D-11   1.478459D-11   5.933661D-12
       5     1.556872D-07   1.893729D-08  -2.788421D-08  -3.362247D-09   7.380877D-04
       6     6.447394D-08   1.941411D-08   5.624850D-09   3.685643D-09   6.992228D-05   1.060884D-04
       7     9.524605D-08   1.999886D-08  -3.382296D-09   2.660714D-11   4.207789D-05   3.657343D-06
       8     1.652895D-08   1.376217D-08   4.262855D-10   9.817591D-11   9.806766D-07   1.716617D-06

               Column   7     Column   8
       7     5.430616D-06
[...]
       3      -0.37790912     0.92566881     0.01794317
    ==== End of matrix output ====


 CCSD  Transition strength matrix for state nr. 13 of symmetry 1
 CCSD  excitation energy:15.05621264

 Gauge: length

               Column   1     Column   2     Column   3
       1     1.165952D-07   1.710590D-06   3.512246D-08
       2     1.710590D-06   2.491258D-05   4.838292D-07
       3     3.512246D-08   4.838292D-07   5.195736D-09
    ==== End of matrix output ====

 Principal values of diagonalized transition strength matrix:

             a.u.               
 1      -0.00000001
 2       0.00000000
 3       0.00002504

 Principal axis of diagonalized transition strength matrix:


               Column   1     Column   2     Column   3
       1      -0.41157619     0.90879830     0.06848868
       2       0.01055950    -0.07038848     0.99746376
       3       0.91131418     0.41125554     0.01937377
    ==== End of matrix output ====


 CCSD   oscillator strength matrix for state nr. 13 of symmetry 1
 CCSD  excitation energy:15.05621264


               Column   1     Column   2     Column   3
       1     1.170322D-06   1.717001D-05   3.525408D-07
       2     1.717001D-05   2.500594D-04   4.856423D-06
       3     3.525408D-07   4.856423D-06   5.215207D-08
    ==== End of matrix output ====

 Principal values of diagonalized oscillator strength matrix:

             a.u.               
 1      -0.00000005
 2       0.00000000
 3       0.00025133

 Principal axis of diagonalized oscillator strength matrix:


               Column   1     Column   2     Column   3
       1      -0.41157619     0.90879830     0.06848868
       2       0.01055950    -0.07038848     0.99746376
       3       0.91131418     0.41125554     0.01937377
    ==== End of matrix output ====


 CCSD  Transition strength matrix for state nr. 14 of symmetry 1
 CCSD  excitation energy:15.06389063

 Gauge: length

               Column   1     Column   2     Column   3
       1     1.037087D-04  -6.503941D-05   2.731887D-05
       2    -6.503941D-05   4.078706D-05  -1.713442D-05
       3     2.731887D-05  -1.713442D-05   7.194137D-06
    ==== End of matrix output ====

 Principal values of diagonalized transition strength matrix:

             a.u.               
 1      -0.00000000
 2      -0.00000000
 3       0.00015169

 Principal axis of diagonalized transition strength matrix:


               Column   1     Column   2     Column   3
       1       0.13445581     0.54612115     0.82684540
       2       0.55828068     0.64763970    -0.51854170
       3       0.81868450    -0.53133276     0.21780997
    ==== End of matrix output ====


 CCSD   oscillator strength matrix for state nr. 14 of symmetry 1
 CCSD  excitation energy:15.06389063


               Column   1     Column   2     Column   3
       1       0.00104150    -0.00065316     0.00027435
       2      -0.00065316     0.00040961    -0.00017207
       3       0.00027435    -0.00017207     0.00007225
    ==== End of matrix output ====

 Principal values of diagonalized oscillator strength matrix:

             a.u.               
 1      -0.00000004
 2      -0.00000000
 3       0.00152340

 Principal axis of diagonalized oscillator strength matrix:


               Column   1     Column   2     Column   3
       1       0.13445581     0.54612115     0.82684540
       2       0.55828068     0.64763970    -0.51854170
       3       0.81868450    -0.53133276     0.21780997
    ==== End of matrix output ====


 CCSD  Transition strength matrix for state nr. 15 of symmetry 1
 CCSD  excitation energy:15.09871124

 Gauge: length

               Column   1     Column   2     Column   3
       1     2.598008D-06  -3.015487D-06  -5.058607D-06
       2    -3.015487D-06   3.499448D-06   5.870661D-06
       3    -5.058607D-06   5.870661D-06   9.848538D-06
    ==== End of matrix output ====

 Principal values of diagonalized transition strength matrix:

             a.u.               
 1      -0.00000000
 2       0.00000000
 3       0.00001595

 Principal axis of diagonalized transition strength matrix:


               Column   1     Column   2     Column   3
       1       0.89077074    -0.20878322    -0.40365462
       2       0.39724609     0.78913904     0.46846038
       3       0.22073295    -0.57764102     0.78588028
    ==== End of matrix output ====


 CCSD   oscillator strength matrix for state nr. 15 of symmetry 1
 CCSD  excitation energy:15.09871124


               Column   1     Column   2     Column   3
       1     2.615105D-05  -3.035331D-05  -5.091896D-05
       2    -3.035331D-05   3.522477D-05   5.909294D-05
       3    -5.091896D-05   5.909294D-05   9.913349D-05
    ==== End of matrix output ====

 Principal values of diagonalized oscillator strength matrix:

             a.u.               
 1      -0.00000000
 2       0.00000000
 3       0.00016051

 Principal axis of diagonalized oscillator strength matrix:


               Column   1     Column   2     Column   3
       1       0.89077074    -0.20878322    -0.40365462
       2       0.39724609     0.78913904     0.46846038
       3       0.22073295    -0.57764102     0.78588028
    ==== End of matrix output ====

  Total time for    135 linear response residues:      21.41 seconds.
  

 *******************************************************************************
 *******************************************************************************
 *                                                                             *
 *                                                                             *
 *                   SUMMARY OF COUPLED CLUSTER CALCULATION                    *
 *                                                                             *
 *                                                                             *
 *******************************************************************************
 *******************************************************************************

                                                                                
                                                                                
            Total SCF   energy:                  -360.8099138625                
            Total MP2   energy:                  -361.9176520041                
            Total CCSD  energy:                  -361.9556379810                
                                                                                
                                                                                
            Total SCF   energy:                  -360.8099138625                
            Total RSTAR energy:                  -361.9556379810                
            Total CCSD  energy:                  -361.9556871253                
                                                                                
                                                                                
            Total SCF   energy:                  -360.8099138625                
            Total RSTAR energy:                  -361.9556871253                
            Total CCSD  energy:                  -361.9556893753                
                                                                                
                                                                                
            Total SCF   energy:                  -360.8099138625                
            Total RSTAR energy:                  -361.9556893753                
            Total CCSD  energy:                  -361.9556894922                
                                                                                
                                                                                
            Total SCF   energy:                  -360.8099138625                
            Total RSTAR energy:                  -361.9556894922                
            Total CCSD  energy:                  -361.9556894986                
            CCSD Total  energy:                  -362.4009361163                
            CCSD E(PE-CC)     :                    -0.4405223175                
                                                                                
                                                                                
 +=============================================================================+
 |  sym. | Exci.  |        CCSD       Excitation energies            | ||T1||  |
 |(spin, |        +------------------------------------------------------------+
 | spat) |        |     Hartree    |       eV.      |     cm-1       |    %    |
 +=============================================================================+
 | ^1A   |    1   |    14.8111539  |     403.03200  |   3250672.502  |  88.57  |
 | ^1A   |    2   |    14.8719177  |     404.68547  |   3264008.623  |  88.73  |
 | ^1A   |    3   |    14.8866346  |     405.08593  |   3267238.620  |  88.69  |
 | ^1A   |    4   |    14.9114234  |     405.76047  |   3272679.122  |  88.59  |
 | ^1A   |    5   |    14.9333058  |     406.35592  |   3277481.752  |  88.30  |
 | ^1A   |    6   |    14.9520152  |     406.86503  |   3281588.005  |  88.42  |
 | ^1A   |    7   |    14.9697964  |     407.34888  |   3285490.512  |  88.45  |
 | ^1A   |    8   |    14.9963130  |     408.07043  |   3291310.228  |  88.60  |
 | ^1A   |    9   |    15.0020962  |     408.22780  |   3292579.495  |  88.31  |
 | ^1A   |   10   |    15.0153998  |     408.58981  |   3295499.309  |  88.94  |
 | ^1A   |   11   |    15.0290387  |     408.96095  |   3298492.689  |  88.42  |
 | ^1A   |   12   |    15.0431515  |     409.34498  |   3301590.099  |  88.18  |
 | ^1A   |   13   |    15.0562126  |     409.70039  |   3304456.688  |  88.13  |
 | ^1A   |   14   |    15.0638906  |     409.90932  |   3306141.812  |  88.20  |
 | ^1A   |   15   |    15.0987112  |     410.85683  |   3313784.053  |  88.13  |
 +=============================================================================+
                                                                                
                                                                                
     Total energies in Hartree:                                                 
             1 ^1A       -347.1492599440                                        
             2 ^1A       -347.0884961064                                        
             3 ^1A       -347.0737791599                                        
             4 ^1A       -347.0489904075                                        
             5 ^1A       -347.0271080159                                        
             6 ^1A       -347.0083985491                                        
             7 ^1A       -346.9906174166                                        
             8 ^1A       -346.9641008415                                        
             9 ^1A       -346.9583176360                                        
            10 ^1A       -346.9450139829                                        
            11 ^1A       -346.9313751386                                        
            12 ^1A       -346.9172623008                                        
            13 ^1A       -346.9042011607                                        
            14 ^1A       -346.8965231732                                        
            15 ^1A       -346.8617025572                                        
                                                                                
                                                                                
 +=============================================================================+
 |  sym. | Exci.  |        CCSD       Length   Gauge Oscillator Strength       |
 |(spin, |        +------------------------------------------------------------+
 | spat) |        | Dipole Strength(a.u.) | Oscillator strength  | Direction   |
 +=============================================================================+
 | ^1A   |    1   |        0.0006340      |      0.0062606       |  (Y,Z)      |
 | ^1A   |    2   |        0.0021263      |      0.0210814       |  (Y,Z)      |
 | ^1A   |    3   |        0.0012220      |      0.0121279       |  (Y,Z)      |
 | ^1A   |    4   |        0.0014064      |      0.0139813       |  (Y,Z)      |
 | ^1A   |    5   |        0.0006148      |      0.0061205       |  (Y,Z)      |
 | ^1A   |    6   |        0.0006666      |      0.0066442       |  (Y,Z)      |
 | ^1A   |    7   |        0.0001483      |      0.0014802       |  (Y,Z)      |
 | ^1A   |    8   |        0.0012222      |      0.0122192       |  (Y,Z)      |
 | ^1A   |    9   |        0.0004934      |      0.0049343       |  (Y,Z)      |
 | ^1A   |   10   |        0.0020724      |      0.0207449       |  (Y,Z)      |
 | ^1A   |   11   |        0.0003809      |      0.0038161       |  (Y,Z)      |
 | ^1A   |   12   |        0.0001546      |      0.0015505       |  (Y,Z)      |
 | ^1A   |   13   |        0.0000250      |      0.0002513       |  (Y,Z)      |
 | ^1A   |   14   |        0.0001517      |      0.0015234       |  (Y,Z)      |
 | ^1A   |   15   |        0.0000159      |      0.0001605       |  (Y,Z)      |
 +=============================================================================+

  1 a.u. =        27.21138 eV.  
  1 a.u. =    219474.62934 cm-1.
  

 *******************************************************************************
 *******************************************************************************
 *                                                                             *
 *                                                                             *
 *                      END OF COUPLED CLUSTER CALCULATION                     *
 *                                                                             *
 *                                                                             *
 *******************************************************************************
 *******************************************************************************


 CPU and wall time for CC :  239242.267   77215.398

 
     Date and time (Linux)  : Fri Dec 21 03:16:44 2018
     Host name              : s71p32.deic.sdu.dk                      


                      .-------------------------------------.
                      | End of Coupled Cluster Section (CC) |
                      `-------------------------------------'

  Total CPU  time used in DALTON:  66 hours 31 minutes 44 seconds
  Total wall time used in DALTON:  21 hours 29 minutes  6 seconds

 
     Date and time (Linux)  : Fri Dec 21 03:16:44 2018
     Host name              : s71p32.deic.sdu.dk                      
  

 +---------------------------------------------------------+ 
 | List of selected calculated molecular properties (a.u.) | 
 +---------------------------------------------------------+ 

  Properties are read from unit number                      4

 CCSD       properties :
 #  1 1 PE-CCSD  Ground state Energy =    -362.4009361163
 #  2 1 E(PE-CC) Ground state Energy =      -0.4405223175
 #  3 1 Sy: 1 Sp: 1 Exc:  1 E_tot:   -347.1492599440 w:     14.8111538547 E_grs:   -361.9604137988
 #  4 1 Exctot   Excited state Energy =    -347.1492599440
 #  5 1 Sy: 1 Sp: 1 Exc:  2 E_tot:   -347.0884961064 w:     14.8719176924 E_grs:   -361.9604137988
 #  6 1 Exctot   Excited state Energy =    -347.0884961064
 #  7 1 Sy: 1 Sp: 1 Exc:  3 E_tot:   -347.0737791599 w:     14.8866346388 E_grs:   -361.9604137988
 #  8 1 Exctot   Excited state Energy =    -347.0737791599
 #  9 1 Sy: 1 Sp: 1 Exc:  4 E_tot:   -347.0489904075 w:     14.9114233913 E_grs:   -361.9604137988
 # 10 1 Exctot   Excited state Energy =    -347.0489904075
 # 11 1 Sy: 1 Sp: 1 Exc:  5 E_tot:   -347.0271080159 w:     14.9333057829 E_grs:   -361.9604137988
 # 12 1 Exctot   Excited state Energy =    -347.0271080159
 # 13 1 Sy: 1 Sp: 1 Exc:  6 E_tot:   -347.0083985491 w:     14.9520152496 E_grs:   -361.9604137988
 # 14 1 Exctot   Excited state Energy =    -347.0083985491
 # 15 1 Sy: 1 Sp: 1 Exc:  7 E_tot:   -346.9906174166 w:     14.9697963822 E_grs:   -361.9604137988
 # 16 1 Exctot   Excited state Energy =    -346.9906174166
 # 17 1 Sy: 1 Sp: 1 Exc:  8 E_tot:   -346.9641008415 w:     14.9963129573 E_grs:   -361.9604137988
 # 18 1 Exctot   Excited state Energy =    -346.9641008415
 # 19 1 Sy: 1 Sp: 1 Exc:  9 E_tot:   -346.9583176360 w:     15.0020961628 E_grs:   -361.9604137988
 # 20 1 Exctot   Excited state Energy =    -346.9583176360
 # 21 1 Sy: 1 Sp: 1 Exc: 10 E_tot:   -346.9450139829 w:     15.0153998159 E_grs:   -361.9604137988
 # 22 1 Exctot   Excited state Energy =    -346.9450139829
 # 23 1 Sy: 1 Sp: 1 Exc: 11 E_tot:   -346.9313751386 w:     15.0290386602 E_grs:   -361.9604137988
 # 24 1 Exctot   Excited state Energy =    -346.9313751386
 # 25 1 Sy: 1 Sp: 1 Exc: 12 E_tot:   -346.9172623008 w:     15.0431514980 E_grs:   -361.9604137988
 # 26 1 Exctot   Excited state Energy =    -346.9172623008
 # 27 1 Sy: 1 Sp: 1 Exc: 13 E_tot:   -346.9042011607 w:     15.0562126381 E_grs:   -361.9604137988
 # 28 1 Exctot   Excited state Energy =    -346.9042011607
 # 29 1 Sy: 1 Sp: 1 Exc: 14 E_tot:   -346.8965231732 w:     15.0638906256 E_grs:   -361.9604137988
 # 30 1 Exctot   Excited state Energy =    -346.8965231732
 # 31 1 Sy: 1 Sp: 1 Exc: 15 E_tot:   -346.8617025572 w:     15.0987112416 E_grs:   -361.9604137988
 # 32 1 Exctot   Excited state Energy =    -346.8617025572
 # 33 1 |<O|XDIPLEN |i(14.811154)>| =     0.00337587
 # 35 1 |<O|XDIPLEN |i(14.871918)>| =     0.01220698
 # 37 1 |<O|XDIPLEN |i(14.886635)>| =     0.03217264
 # 39 1 |<O|XDIPLEN |i(14.911423)>| =     0.00917052
 # 41 1 |<O|XDIPLEN |i(14.933306)>| =     0.01537024
 # 43 1 |<O|XDIPLEN |i(14.952015)>| =     0.01770820
 # 45 1 |<O|XDIPLEN |i(14.969796)>| =     0.00245930
 # 47 1 |<O|XDIPLEN |i(14.996313)>| =     0.01026176
 # 49 1 |<O|XDIPLEN |i(15.002096)>| =     0.00286314
 # 51 1 |<O|XDIPLEN |i(15.015400)>| =     0.04146650
 # 53 1 |<O|XDIPLEN |i(15.029039)>| =     0.00911827
 # 55 1 |<O|XDIPLEN |i(15.043151)>| =     0.01023101
 # 57 1 |<O|XDIPLEN |i(15.056213)>| =     0.00034146
 # 59 1 |<O|XDIPLEN |i(15.063891)>| =     0.01018375
 # 61 1 |<O|XDIPLEN |i(15.098711)>| =     0.00161183
 # 63 1 |<O|YDIPLEN |i(14.811154)>| =     0.02183367
 # 65 1 |<O|YDIPLEN |i(14.871918)>| =     0.02851361
 # 67 1 |<O|YDIPLEN |i(14.886635)>| =     0.00430276
 # 69 1 |<O|YDIPLEN |i(14.911423)>| =     0.02065334
 # 71 1 |<O|YDIPLEN |i(14.933306)>| =     0.01741273
 # 73 1 |<O|YDIPLEN |i(14.952015)>| =     0.00201514
 # 75 1 |<O|YDIPLEN |i(14.969796)>| =     0.01188236
 # 77 1 |<O|YDIPLEN |i(14.996313)>| =     0.01988948
 # 79 1 |<O|YDIPLEN |i(15.002096)>| =     0.00312642
 # 81 1 |<O|YDIPLEN |i(15.015400)>| =     0.01655142
 # 83 1 |<O|YDIPLEN |i(15.029039)>| =     0.01077913
 # 85 1 |<O|YDIPLEN |i(15.043151)>| =     0.00706259
 # 87 1 |<O|YDIPLEN |i(15.056213)>| =     0.00499125
 # 89 1 |<O|YDIPLEN |i(15.063891)>| =     0.00638647
 # 91 1 |<O|YDIPLEN |i(15.098711)>| =     0.00187068
 # 93 1 |<O|ZDIPLEN |i(14.811154)>| =     0.01208057
 # 95 1 |<O|ZDIPLEN |i(14.871918)>| =     0.03412121
 # 97 1 |<O|ZDIPLEN |i(14.886635)>| =     0.01297812
 # 99 1 |<O|ZDIPLEN |i(14.911423)>| =     0.02992945
 #101 1 |<O|ZDIPLEN |i(14.933306)>| =     0.00867941
 #103 1 |<O|ZDIPLEN |i(14.952015)>| =     0.01867915
 #105 1 |<O|ZDIPLEN |i(14.969796)>| =     0.00103745
 #107 1 |<O|ZDIPLEN |i(14.996313)>| =     0.02685754
 #109 1 |<O|ZDIPLEN |i(15.002096)>| =     0.02180352
 #111 1 |<O|ZDIPLEN |i(15.015400)>| =     0.00888509
 #113 1 |<O|ZDIPLEN |i(15.029039)>| =     0.01347361
 #115 1 |<O|ZDIPLEN |i(15.043151)>| =     0.00022157
 #117 1 |<O|ZDIPLEN |i(15.056213)>| =     0.00007208
 #119 1 |<O|ZDIPLEN |i(15.063891)>| =     0.00268219
 #121 1 |<O|ZDIPLEN |i(15.098711)>| =     0.00313824

 THE_END   
