

     ************************************************************************
     *************** Dalton - An Electronic Structure Program ***************
     ************************************************************************

    This is output from DALTON release Dalton2017.alpha (2016)
         ( Web site: http://daltonprogram.org )

   ----------------------------------------------------------------------------

    NOTE:
     
    Dalton is an experimental code for the evaluation of molecular
    properties using (MC)SCF, DFT, CI, and CC wave functions.
    The authors accept no responsibility for the performance of
    the code or for the correctness of the results.
     
    The code (in whole or part) is provided under a licence and
    is not to be reproduced for further distribution without
    the written permission of the authors or their representatives.
     
    See the home page "http://daltonprogram.org" for further information.
     
    If results obtained with this code are published,
    the appropriate citations would be both of:
     
       K. Aidas, C. Angeli, K. L. Bak, V. Bakken, R. Bast,
       L. Boman, O. Christiansen, R. Cimiraglia, S. Coriani,
       P. Dahle, E. K. Dalskov, U. Ekstroem,
       T. Enevoldsen, J. J. Eriksen, P. Ettenhuber, B. Fernandez,
       L. Ferrighi, H. Fliegl, L. Frediani, K. Hald, A. Halkier,
       C. Haettig, H. Heiberg, T. Helgaker, A. C. Hennum,
       H. Hettema, E. Hjertenaes, S. Hoest, I.-M. Hoeyvik,
       M. F. Iozzi, B. Jansik, H. J. Aa. Jensen, D. Jonsson,
       P. Joergensen, J. Kauczor, S. Kirpekar,
       T. Kjaergaard, W. Klopper, S. Knecht, R. Kobayashi, H. Koch,
       J. Kongsted, A. Krapp, K. Kristensen, A. Ligabue,
       O. B. Lutnaes, J. I. Melo, K. V. Mikkelsen, R. H. Myhre,
       C. Neiss, C. B. Nielsen, P. Norman, J. Olsen,
       J. M. H. Olsen, A. Osted, M. J. Packer, F. Pawlowski,
       T. B. Pedersen, P. F. Provasi, S. Reine, Z. Rinkevicius,
       T. A. Ruden, K. Ruud, V. Rybkin, P. Salek, C. C. M. Samson,
       A. Sanchez de Meras, T. Saue, S. P. A. Sauer,
       B. Schimmelpfennig, K. Sneskov, A. H. Steindal,
       K. O. Sylvester-Hvid, P. R. Taylor, A. M. Teale,
       E. I. Tellgren, D. P. Tew, A. J. Thorvaldsen, L. Thoegersen,
       O. Vahtras, M. A. Watson, D. J. D. Wilson, M. Ziolkowski
       and H. Agren,
       "The Dalton quantum chemistry program system",
       WIREs Comput. Mol. Sci. 2014, 4:269–284 (doi: 10.1002/wcms.1172)
     
    and
     
       Dalton, a Molecular Electronic Structure Program,
       Release Dalton2017.alpha (2016), see http://daltonprogram.org
   ----------------------------------------------------------------------------

    Authors in alphabetical order (major contribution(s) in parenthesis):

  Kestutis Aidas,           Vilnius University,           Lithuania   (QM/MM)
  Celestino Angeli,         University of Ferrara,        Italy       (NEVPT2)
  Keld L. Bak,              UNI-C,                        Denmark     (AOSOPPA, non-adiabatic coupling, magnetic properties)
  Vebjoern Bakken,          University of Oslo,           Norway      (DALTON; geometry optimizer, symmetry detection)
  Radovan Bast,             UiT The Arctic U. of Norway,  Norway      (DALTON installation and execution frameworks)
  Pablo Baudin,             University of Valencia,       Spain       (Cholesky excitation energies)
  Linus Boman,              NTNU,                         Norway      (Cholesky decomposition and subsystems)
  Ove Christiansen,         Aarhus University,            Denmark     (CC module)
  Renzo Cimiraglia,         University of Ferrara,        Italy       (NEVPT2)
  Sonia Coriani,            University of Trieste,        Italy       (CC module, MCD in RESPONS)
  Janusz Cukras,            University of Trieste,        Italy       (MChD in RESPONS)
  Paal Dahle,               University of Oslo,           Norway      (Parallelization)
  Erik K. Dalskov,          UNI-C,                        Denmark     (SOPPA)
  Thomas Enevoldsen,        Univ. of Southern Denmark,    Denmark     (SOPPA)
  Janus J. Eriksen,         Aarhus University,            Denmark     (Polarizable embedding model, TDA)
  Rasmus Faber,             University of Copenhagen,     Denmark     (Vib.avg. NMR with SOPPA, parallel AO-SOPPA)
  Berta Fernandez,          U. of Santiago de Compostela, Spain       (doublet spin, ESR in RESPONS)
  Lara Ferrighi,            Aarhus University,            Denmark     (PCM Cubic response)
  Heike Fliegl,             University of Oslo,           Norway      (CCSD(R12))
  Luca Frediani,            UiT The Arctic U. of Norway,  Norway      (PCM)
  Bin Gao,                  UiT The Arctic U. of Norway,  Norway      (Gen1Int library)
  Christof Haettig,         Ruhr-University Bochum,       Germany     (CC module)
  Kasper Hald,              Aarhus University,            Denmark     (CC module)
  Asger Halkier,            Aarhus University,            Denmark     (CC module)
  Frederik Beyer Hansen,    University of Copenhagen,     Denmark     (Parallel AO-SOPPA)
  Erik D. Hedegaard,        Univ. of Southern Denmark,    Denmark     (Polarizable embedding model, QM/MM)
  Hanne Heiberg,            University of Oslo,           Norway      (geometry analysis, selected one-electron integrals)
  Trygve Helgaker,          University of Oslo,           Norway      (DALTON; ABACUS, ERI, DFT modules, London, and much more)
  Alf Christian Hennum,     University of Oslo,           Norway      (Parity violation)
  Hinne Hettema,            University of Auckland,       New Zealand (quadratic response in RESPONS; SIRIUS supersymmetry)
  Eirik Hjertenaes,         NTNU,                         Norway      (Cholesky decomposition)
  Pi A. B. Haase,           University of Copenhagen,     Denmark     (Triplet AO-SOPPA)
  Maria Francesca Iozzi,    University of Oslo,           Norway      (RPA)
  Brano Jansik              Technical Univ. of Ostrava    Czech Rep.  (DFT cubic response)
  Hans Joergen Aa. Jensen,  Univ. of Southern Denmark,    Denmark     (DALTON; SIRIUS, RESPONS, ABACUS modules, London, and much more)
  Dan Jonsson,              UiT The Arctic U. of Norway,  Norway      (cubic response in RESPONS module)
  Poul Joergensen,          Aarhus University,            Denmark     (RESPONS, ABACUS, and CC modules)
  Maciej Kaminski,          University of Warsaw,         Poland      (CPPh in RESPONS)
  Joanna Kauczor,           Linkoeping University,        Sweden      (Complex polarization propagator (CPP) module)
  Sheela Kirpekar,          Univ. of Southern Denmark,    Denmark     (Mass-velocity & Darwin integrals)
  Wim Klopper,              KIT Karlsruhe,                Germany     (R12 code in CC, SIRIUS, and ABACUS modules)
  Stefan Knecht,            ETH Zurich,                   Switzerland (Parallel CI and MCSCF)
  Rika Kobayashi,           Australian National Univ.,    Australia   (DIIS in CC, London in MCSCF)
  Henrik Koch,              NTNU,                         Norway      (CC module, Cholesky decomposition)
  Jacob Kongsted,           Univ. of Southern Denmark,    Denmark     (Polarizable embedding model, QM/MM)
  Andrea Ligabue,           University of Modena,         Italy       (CTOCD, AOSOPPA)
  Nanna H. List             Univ. of Southern Denmark,    Denmark     (Polarizable embedding model)
  Ola B. Lutnaes,           University of Oslo,           Norway      (DFT Hessian)
  Juan I. Melo,             University of Buenos Aires,   Argentina   (LRESC, Relativistic Effects on NMR Shieldings)
  Kurt V. Mikkelsen,        University of Copenhagen,     Denmark     (MC-SCRF and QM/MM)
  Rolf H. Myhre,            NTNU,                         Norway      (Cholesky, subsystems and ECC2)
  Christian Neiss,          Univ. Erlangen-Nuernberg,     Germany     (CCSD(R12))
  Christian B. Nielsen,     University of Copenhagen,     Denmark     (QM/MM)
  Patrick Norman,           Linkoeping University,        Sweden      (Cubic response and complex frequency response in RESPONS)
  Jeppe Olsen,              Aarhus University,            Denmark     (SIRIUS CI/density modules)
  Jogvan Magnus H. Olsen,   Univ. of Southern Denmark,    Denmark     (Polarizable embedding model, QM/MM)
  Anders Osted,             Copenhagen University,        Denmark     (QM/MM)
  Martin J. Packer,         University of Sheffield,      UK          (SOPPA)
  Filip Pawlowski,          Kazimierz Wielki University,  Poland      (CC3)
  Morten N. Pedersen,       Univ. of Southern Denmark,    Denmark     (Polarizable embedding model)
  Thomas B. Pedersen,       University of Oslo,           Norway      (Cholesky decomposition)
  Patricio F. Provasi,      University of Northeastern,   Argentina   (Analysis of coupling constants in localized orbitals)
  Zilvinas Rinkevicius,     KTH Stockholm,                Sweden      (open-shell DFT, ESR)
  Elias Rudberg,            KTH Stockholm,                Sweden      (DFT grid and basis info)
  Torgeir A. Ruden,         University of Oslo,           Norway      (Numerical derivatives in ABACUS)
  Kenneth Ruud,             UiT The Arctic U. of Norway,  Norway      (DALTON; ABACUS magnetic properties and much more)
  Pawel Salek,              KTH Stockholm,                Sweden      (DALTON; DFT code)
  Claire C. M. Samson       University of Karlsruhe       Germany     (Boys localization, r12 integrals in ERI)
  Alfredo Sanchez de Meras, University of Valencia,       Spain       (CC module, Cholesky decomposition)
  Trond Saue,               Paul Sabatier University,     France      (direct Fock matrix construction)
  Stephan P. A. Sauer,      University of Copenhagen,     Denmark     (SOPPA(CCSD), SOPPA prop., AOSOPPA, vibrational g-factors)
  Bernd Schimmelpfennig,    Forschungszentrum Karlsruhe,  Germany     (AMFI module)
  Kristian Sneskov,         Aarhus University,            Denmark     (Polarizable embedding model, QM/MM)
  Arnfinn H. Steindal,      UiT The Arctic U. of Norway,  Norway      (parallel QM/MM, Polarizable embedding model)
  Casper Steinmann,         Univ. of Southern Denmark,    Denmark     (QFIT, Polarizable embedding model)
  K. O. Sylvester-Hvid,     University of Copenhagen,     Denmark     (MC-SCRF)
  Peter R. Taylor,          VLSCI/Univ. of Melbourne,     Australia   (Symmetry handling ABACUS, integral transformation)
  Andrew M. Teale,          University of Nottingham,     England     (DFT-AC, DFT-D)
  David P. Tew,             University of Bristol,        England     (CCSD(R12))
  Olav Vahtras,             KTH Stockholm,                Sweden      (triplet response, spin-orbit, ESR, TDDFT, open-shell DFT)
  David J. Wilson,          La Trobe University,          Australia   (DFT Hessian and DFT magnetizabilities)
  Hans Agren,               KTH Stockholm,                Sweden      (SIRIUS module, RESPONS, MC-SCRF solvation model)
 --------------------------------------------------------------------------------

     Date and time (Linux)  : Thu Dec 20 05:47:38 2018
     Host name              : s71p32.deic.sdu.dk                      

 * Work memory size             :  2048000000 = 15.259 gigabytes.

 * Directories for basis set searches:
   1) /work/sdujk/reinholdt/ECP-Sonia/mixed-basis
   2) /gpfs/gss1/work/sdujk/reinholdt/Programs/dalton-private/pe-cvs/basis


Compilation information
-----------------------

 Who compiled             | reinholdt
 Host                     | fe1.deic.sdu.dk
 System                   | Linux-3.10.0-327.36.3.el7.x86_64
 CMake generator          | Unix Makefiles
 Processor                | x86_64
 64-bit integers          | ON
 MPI                      | OFF
 Fortran compiler         | /opt/sys/apps/intel/2018.05/compilers_and_librarie
                          | s_2018.3.222/linux/bin/intel64/ifort
 Fortran compiler version | ifort (IFORT) 18.0.3 20180410
 C compiler               | /opt/sys/apps/intel/2018.05/compilers_and_librarie
                          | s_2018.3.222/linux/bin/intel64/icc
 C compiler version       | icc (ICC) 18.0.3 20180410
 C++ compiler             | /opt/sys/apps/intel/2018.05/compilers_and_librarie
                          | s_2018.3.222/linux/bin/intel64/icpc
 C++ compiler version     | icpc (ICC) 18.0.3 20180410
 Static linking           | OFF
 Last Git revision        | 252a54078a0f9a1f0a59b3262fa4a57829155fe9
 Git branch               | pe/cc-cvs
 Configuration time       | 2018-12-09 12:09:40.474621


   Content of the .dal input file
 ----------------------------------

**DALTON
.RUN WAVE FUNCTIONS
.PEQM
**INTEGRALS
.DIPLEN
**WAVE FUNCTIONS
.CC
*PRINT
!To check the origin of excit
.PRINTL
   0 11
*SCF INP
.THRESH
1.0D-7
*CC INP
.CCSD
.THRLEQ
 1.0D-9
.THRENR
 1.0D-10
.FROIMP
4
0
.PRINT
 1
.MAX IT
 1200
.MAXRED
 1200
.MXLRV
1199
*PECC
*CCEXCI
.NCCEXC
 15
.CVSEPARA
1
1
*CCLRSD
.DIPOLE
**END OF DALTON INPUT


   Content of the .mol file
 ----------------------------

ATOMBASIS


Atomtypes=4 Charge=0 Nosymm Angstrom
   7.00000    1    Basis=6-311++G**
N          0.000000        0.000000        0.000000
   1.00000    3    Basis=6-311++G**
H         -0.289697       -0.595427       -0.786813
H          0.725456       -0.549821        0.359388
H         -0.662062       -0.013191        0.779102
   8.00000    4    Basis=6-311G**
O         -1.568349       -1.999512       -1.363307
O          1.970561       -2.148947        0.621290
O          0.430559        2.677908       -0.288482
O         -3.104181        0.240492        1.996511
   1.00000    8    Basis=6-311G**
H         -0.853407       -2.521728       -1.772188
H         -2.401309       -2.086574       -1.991420
H          2.758511       -2.517247        0.173949
H          1.247031       -2.187999       -0.034818
H          1.362711        3.056804       -0.043166
H          0.396938        1.667331       -0.210000
H         -3.490122        0.621238        1.201654
H         -2.592811        0.919226        2.434691


       *******************************************************************
       *********** Output from DALTON general input processing ***********
       *******************************************************************

 --------------------------------------------------------------------------------
   Overall default print level:    0
   Print level for DALTON.STAT:    1

    HERMIT 1- and 2-electron integral sections will be executed
    "Old" integral transformation used (limited to max 255 basis functions)
    Wave function sections will be executed (SIRIUS module)
    Environment is modeled using polarizable embedding scheme (PE library)
 --------------------------------------------------------------------------------


   ****************************************************************************
   *************** Output of molecule and basis set information ***************
   ****************************************************************************


    The two title cards from your ".mol" input:
    ------------------------------------------------------------------------
 1:                                                                         
 2:                                                                         
    ------------------------------------------------------------------------

  Coordinates are entered in Angstrom and converted to atomic units.
          - Conversion factor : 1 bohr = 0.52917721 A

  Atomic type no.    1
  --------------------
  Nuclear charge:   7.00000
  Number of symmetry independent centers:    1
  Number of basis sets to read;    2
  The basis set is "6-311++G**" from the basis set library.
  Basis set file used for this atomic type with Z =   7 :
     "/gpfs/gss1/work/sdujk/reinholdt/Programs/dalton-private/pe-cvs/basis/6-311++G**"

  Info about the basis set file: your basis has no documentation.
  Basis set: 6-311++G**                                                                      

  Atomic type no.    2
  --------------------
  Nuclear charge:   1.00000
  Number of symmetry independent centers:    3
  Number of basis sets to read;    2
  The basis set is "6-311++G**" from the basis set library.
  Basis set file used for this atomic type with Z =   1 :
     "/gpfs/gss1/work/sdujk/reinholdt/Programs/dalton-private/pe-cvs/basis/6-311++G**"

  Info about the basis set file: your basis has no documentation.
  Basis set: 6-311++G**                                                                      

  Atomic type no.    3
  --------------------
  Nuclear charge:   8.00000
  Number of symmetry independent centers:    4
  Number of basis sets to read;    2
  The basis set is "6-311G**" from the basis set library.
  Basis set file used for this atomic type with Z =   8 :
     "/gpfs/gss1/work/sdujk/reinholdt/Programs/dalton-private/pe-cvs/basis/6-311G**"

  Info about the basis set file: your basis has no documentation.
  Basis set: 6-311G**                                                                        

  Atomic type no.    4
  --------------------
  Nuclear charge:   1.00000
  Number of symmetry independent centers:    8
  Number of basis sets to read;    2
  The basis set is "6-311G**" from the basis set library.
  Basis set file used for this atomic type with Z =   1 :
     "/gpfs/gss1/work/sdujk/reinholdt/Programs/dalton-private/pe-cvs/basis/6-311G**"

  Info about the basis set file: your basis has no documentation.
  Basis set: 6-311G**                                                                        


                         SYMGRP: Point group information
                         -------------------------------

@    Point group: C1 


                                 Isotopic Masses
                                 ---------------

                           N          14.003074
                           H           1.007825
                           H           1.007825
                           H           1.007825
                           O          15.994915
                           O          15.994915
                           O          15.994915
                           O          15.994915
                           H           1.007825
                           H           1.007825
                           H           1.007825
                           H           1.007825
                           H           1.007825
                           H           1.007825
                           H           1.007825
                           H           1.007825

                       Total mass:    89.068809 amu
                       Natural abundance:  98.514 %

 Center-of-mass coordinates (a.u.):   -0.852043   -0.507392    0.330182


  Atoms and basis sets
  --------------------

  Number of atom types :    4
  Total number of atoms:   16

  label    atoms   charge   prim   cont     basis
  ----------------------------------------------------------------------
  N           1    7.0000    35    22      [12s6p1d|5s4p1d]                                   
  H           3    1.0000     9     7      [6s1p|4s1p]                                        
  O           4    8.0000    31    18      [11s5p1d|4s3p1d]                                   
  H           8    1.0000     8     6      [5s1p|3s1p]                                        
  ----------------------------------------------------------------------
  total:     16   50.0000   250   163
  ----------------------------------------------------------------------
  Spherical harmonic basis used.

  Threshold for neglecting AO integrals:  1.00D-12


  Cartesian Coordinates (a.u.)
  ----------------------------

  Total number of coordinates:   48
  N       :     1  x   0.0000000000    2  y   0.0000000000    3  z   0.0000000000
  H       :     4  x  -0.5474479892    5  y  -1.1251939574    6  z  -1.4868610816
  H       :     7  x   1.3709131557    8  y  -1.0390111078    9  z   0.6791448926
  H       :    10  x  -1.2511158578   11  y  -0.0249273773   12  z   1.4722894034
  O       :    13  x  -2.9637500784   14  y  -3.7785300636   15  z  -2.5762768543
  O       :    16  x   3.7238206026   17  y  -4.0609212871   18  z   1.1740679442
  O       :    19  x   0.8136385907   20  y   5.0605127079   21  z  -0.5451519720
  O       :    22  x  -5.8660519324   23  y   0.4544640153   24  z   3.7728589955
  H       :    25  x  -1.6127055032   26  y  -4.7653752817   27  z  -3.3489499620
  H       :    28  x  -4.5378163515   29  y  -3.9430533995   30  z  -3.7632383998
  H       :    31  x   5.2128303028   32  y  -4.7569074190   33  z   0.3287159697
  H       :    34  x   2.3565470594   35  y  -4.1347188718   36  z  -0.0657964842
  H       :    37  x   2.5751505775   38  y   5.7765223778   39  z  -0.0815719179
  H       :    40  x   0.7501041086   41  y   3.1507989497   42  z  -0.3968424862
  H       :    43  x  -6.5953747228   44  y   1.1739696784   45  z   2.2707969570
  H       :    46  x  -4.8997026839   47  y   1.7370853870   48  z   4.6008991890


   Interatomic separations (in Angstrom):
   --------------------------------------

            N           H           H           H           O           O     
            ------      ------      ------      ------      ------      ------
 N     :    0.000000
 H     :    1.028364    0.000000
 H     :    0.978647    1.531794    0.000000
 H     :    1.022497    1.711650    1.545748    0.000000
 O     :    2.883812    1.984629    3.214160    3.058879    0.000000
 O     :    2.981121    3.083009    2.043547    3.393680    4.060153    0.000000
 O     :    2.727599    3.388484    3.305289    3.094442    5.198956    5.147603
 O     :    3.698626    4.045612    4.239208    2.740508    4.320275    5.775263
 H     :    3.198135    2.235927    3.305275    3.583078    0.975210    3.720551
 H     :    3.753109    2.851930    4.202924    3.872943    1.046866    5.093466
 H     :    3.738472    3.729347    2.835219    4.282152    4.620922    0.978072
 H     :    2.518658    2.337374    1.763821    3.006142    3.118778    0.977496
 H     :    3.347073    4.077040    3.684547    3.768382    5.991679    5.283070
 H     :    1.726746    2.433979    2.312550    2.218999    4.317199    4.210856
 H     :    3.743108    3.959419    4.455546    2.928989    4.140117    6.150594
 H     :    3.673604    4.239882    4.180416    2.708905    4.898300    5.790205

            O           O           H           H           H           H     
            ------      ------      ------      ------      ------      ------
 O     :    0.000000
 O     :    4.863803    0.000000
 H     :    5.557532    5.186418    0.000000
 H     :    5.798255    4.670424    1.622782    0.000000
 H     :    5.711641    6.730380    4.102855    5.612312    0.000000
 H     :    4.940448    5.381163    2.746210    4.141131    1.560948    0.000000
 H     :    1.035688    5.660832    6.246656    6.664674    5.750256    5.246085
 H     :    1.014177    4.377487    4.642414    5.009536    4.820284    3.951824
 H     :    4.671417    0.962141    5.066975    4.325908    7.067650    5.644581
 H     :    4.432764    0.956128    5.706446    5.353687    6.749589    5.522473

            H           H           H           H     
            ------      ------      ------      ------
 H     :    0.000000
 H     :    1.700349    0.000000
 H     :    5.570597    4.265714    0.000000
 H     :    5.133729    4.061114    1.553816    0.000000


  Max    interatomic separation is    7.0677 Angstrom (   13.3559 Bohr)
  between atoms   15 and   11, "H     " and "H     ".

  Min HX interatomic separation is    0.9561 Angstrom (    1.8068 Bohr)

  Min YX interatomic separation is    2.7276 Angstrom (    5.1544 Bohr)


  Bond distances (Angstrom):
  --------------------------

                  atom 1     atom 2       distance
                  ------     ------       --------
  bond distance:  H          N            1.028364
  bond distance:  H          N            0.978647
  bond distance:  H          N            1.022497
  bond distance:  H          O            0.975210
  bond distance:  H          O            1.046866
  bond distance:  H          O            0.978072
  bond distance:  H          O            0.977496
  bond distance:  H          O            1.035688
  bond distance:  H          O            1.014177
  bond distance:  H          O            0.962141
  bond distance:  H          O            0.956128


  Bond angles (degrees):
  ----------------------

                  atom 1     atom 2     atom 3         angle
                  ------     ------     ------         -----
  bond angle:     H          N          H             99.468
  bond angle:     H          N          H            113.148
  bond angle:     H          N          H            101.123
  bond angle:     H          O          H            106.692
  bond angle:     H          O          H            105.918
  bond angle:     H          O          H            112.089
  bond angle:     H          O          H            108.193




 Principal moments of inertia (u*A**2) and principal axes
 --------------------------------------------------------

   IA     356.232876          0.680719   -0.686091   -0.256712
   IB     418.933396          0.698951    0.713220   -0.052761
   IC     576.457040          0.219291   -0.143514    0.965047


 Rotational constants
 --------------------

               A                   B                   C

           1418.6759           1206.3469            876.6985 MHz
            0.047322            0.040239            0.029244 cm-1


@  Nuclear repulsion energy :  183.073223734266 Hartree

  Reading potential input file for polarizable embedding calculation
 
    .------------------------------------------------.
    | Information from polarizable embedding library |
    `------------------------------------------------´

      Number of classical sites:    177

      Multipole moments upto 0th order.

      Dipole-dipole polarizabilities.

      Iterative solver for induced moments will be used
      with convergence threshold: 1.0E-08
      Total charge of classical region:    0.0000
 


                     .---------------------------------------.
                     | Starting in Integral Section (HERMIT) |
                     `---------------------------------------'



 ***************************************************************************************
 ****************** Output from **INTEGRALS input processing (HERMIT) ******************
 ***************************************************************************************



    *************************************************************************
    ****************** Output from HERMIT input processing ******************
    *************************************************************************


 Default print level:        1

 * Nuclear model: Point charge

 Calculation of one- and two-electron Hamiltonian integrals.

 The following one-electron property integrals are calculated as requested:
          - overlap integrals
          - dipole length integrals

 Center of mass  (bohr):     -0.852042931295     -0.507391989554      0.330181864489
 Operator center (bohr):      0.000000000000      0.000000000000      0.000000000000
 Gauge origin    (bohr):      0.000000000000      0.000000000000      0.000000000000
 Dipole origin   (bohr):      0.000000000000      0.000000000000      0.000000000000


     ************************************************************************
     ************************** Output from HERINT **************************
     ************************************************************************



                      Nuclear contribution to dipole moments
                      --------------------------------------

                 au               Debye          C m (/(10**-30)

      x    -41.51736044      -105.52659762      -351.99884053
      y    -26.54660804       -67.47474297      -225.07151589
      z     14.81257099        37.64979762       125.58620676



 Threshold for neglecting two-electron integrals:  1.00D-12
 HERMIT - Number of two-electron integrals written:    38603466 ( 43.2% )
 HERMIT - Megabytes written:                            442.033

  Time used in TWOINT     is       6.85 seconds
  Total CPU  time used in HERMIT:   7.20 seconds
  Total wall time used in HERMIT:   6.46 seconds


                        .----------------------------------.
                        | End of Integral Section (HERMIT) |
                        `----------------------------------'



                   .--------------------------------------------.
                   | Starting in Wave Function Section (SIRIUS) |
                   `--------------------------------------------'

 INPUT: SIMPLE =  F
NCCEXCI for singlet:   15
 CCSD_INPUT: core-val requested
 Requested number of core orbs per sym
                     1
 Indices of requested core orbs
                     1

 *** Output from Huckel module :

     Using EWMO model:          T
     Using EHT  model:          F
     Number of Huckel orbitals each symmetry:   36

 EWMO - Energy Weighted Maximum Overlap - is a Huckel type method,
        which normally is better than Extended Huckel Theory.
 Reference: Linderberg and Ohrn, Propagators in Quantum Chemistry (Wiley, 1973)

 Huckel EWMO eigenvalues for symmetry :  1
          -20.684941     -20.684706     -20.684252     -20.684025     -15.674299
           -1.756025      -1.611654      -1.589881      -1.579552      -1.441409
           -0.842181      -0.792638      -0.788212      -0.785638      -0.733949
           -0.710084      -0.685551      -0.681994      -0.678524      -0.658182
           -0.616014      -0.615359      -0.597781      -0.581449      -0.509841
           -0.262033      -0.241275      -0.233933      -0.232595      -0.185109
           -0.180177      -0.170432      -0.167976      -0.157303      -0.142964
           -0.133861

 **********************************************************************
 *SIRIUS* a direct, restricted step, second order MCSCF program       *
 **********************************************************************

 
     Date and time (Linux)  : Thu Dec 20 05:47:46 2018
     Host name              : s71p32.deic.sdu.dk                      

 Title lines from ".mol" input file:
                                                                             
                                                                             

 Print level on unit LUPRI =   2 is   0
 Print level on unit LUW4  =   2 is  11

@    (Integral direct) CC calculation.

@    This is a combination run starting with
@              a restricted, closed shell Hartree-Fock calculation


 Initial molecular orbitals are obtained according to
 ".MOSTART EWMO  " input option

@    QM part is embedded in an environment :

@         Model: PE

     Wave function specification
     ============================

     For the specification of the Coupled Cluster: see later.


     Wave function environment is modeled using the
     polarizable embedding model (PE library).

@    Wave function type        --- PE-CC ---
@    Number of closed shell electrons          50
@    Number of electrons in active shells       0
@    Total charge of the molecule               0

@    Spin multiplicity and 2 M_S                1         0
@    Total number of symmetries                 1 (point group: C1 )
@    Reference state symmetry                   1 (irrep name : A  )

     Orbital specifications
     ======================
@    Abelian symmetry species          All |    1
@                                          |  A  
                                       --- |  ---
@    Occupied SCF orbitals              25 |   25
@    Secondary orbitals                138 |  138
@    Total number of orbitals          163 |  163
@    Number of basis functions         163 |  163

     Optimization information
     ========================
@    Number of configurations                 1
@    Number of orbital rotations           3450
     ------------------------------------------
@    Total number of variables             3451

     Maximum number of Fock   iterations      0
     Maximum number of DIIS   iterations     60
     Maximum number of QC-SCF iterations     60
     Threshold for SCF convergence     1.00D-07


 Changes of defaults for CC:
 ---------------------------


 -Implicit frozen core calculation
 -Excitation energies calculated
 -One-photon absorption strengths will be calculated
 -Oscillator strengths calculated
  
* Read MO coefficients from SIRIUS.RST with label "NEWORB  " and header info: 20Dec18  REORTHO 


 ***********************************************
 ***** DIIS acceleration of SCF iterations *****
 ***********************************************

 C1-DIIS algorithm; max error vectors =    8
 -----------------------------------------------------------------------------

 *** DIIS iteration number    1
 RDSUPM called. NFMAT, ISYMDM(1:NFMAT)                     1
                     1

Calculating AOSUPINT
     (Precalculated AO two-electron integrals are transformed to P-supermatrix elements.
      Threshold for discarding integrals :  1.00D-12 )
  CPU  time used in FORMSUP    is   4.01 seconds
  WALL time used in FORMSUP    is   8.74 seconds

 ITDIIS, energy, error norm, change in energy, scr.thr., difden:
@ DIIS iter.   1    -359.933347674        3.83020D+00   -3.60D+02  -20    F

 (DIIS_RED) Control Parameters C2DIIS =         F NEVC =    1


 (DIIS_RED) B matrix:

               Column   1
       1      14.67043541
    ==== End of matrix output ====

 DIIS C vector; C2DIIS = F, LAMBDA = -1.47D+01
    1.000000
* Read MO coefficients from SIRIUS.RST with label "NEWORB  " and header info: 20Dec18  DIIS   1
      Virial theorem: -V/T =      1.997805
@    MULPOP   N      -0.63; H       0.18; H       0.24; H       0.20; O      -0.57; O      -0.64; O      -0.82; O      -0.64; H       0.33; H       0.30; 
@             H       0.31; H       0.36; H       0.31; H       0.40; H       0.33; H       0.34; 
   1  Level shift: doubly occupied orbital energies shifted by -2.00D-01

 DIIS Fock eigenvalues in symmetry 1
      -20.72025      -20.71614      -20.70924      -20.51247      -15.98131
       -1.56488       -1.54379       -1.51913       -1.46471       -1.42395
       -0.97212       -0.95509       -0.92938       -0.92480       -0.89225
       -0.86117       -0.80453       -0.79105       -0.78046       -0.75978
       -0.74329       -0.74058       -0.72952       -0.67432       -0.64353
        0.06247        0.11058        0.12029        0.15914        0.20354
        0.21596        0.22534        0.23512        0.24743        0.26321
        0.28263        0.28430        0.29943        0.32857        0.34439
        0.35726        0.38367        0.44106        0.51390        0.56537
        0.57994        0.58336        0.59902        0.60648        0.62519
        0.62604        0.63889        0.65959        0.77879        0.89554
        0.91165        0.96277        0.97636        1.00160        1.01159
        1.04759        1.06182        1.08572        1.09313        1.11210
        1.12258        1.13003        1.17345        1.19109        1.20809
        1.28266        1.29559        1.34192        1.40758        1.42758
        1.46520        1.47865        1.49516        1.50704        1.55462
        1.55559        1.58067        1.61301        1.68078        1.69261
        1.70814        1.73859        1.74815        1.75766        1.83660
        1.85841        1.86947        1.87675        1.89669        1.97241
        2.01360        2.15096        2.18618        2.20832        2.24441
        2.26010        2.28996        2.33855        2.36443        2.38324
        2.49052        2.56842        2.61539        2.63227        2.65114
        2.72906        2.74109        2.74717        2.76815        2.80581
        2.81627        2.84937        2.87118        2.95113        3.04767
        3.09744        3.31501        3.40768        3.42073        3.44313
        3.45641        3.47943        3.49052        3.50765        3.52975
        3.60299        3.62710        3.63747        3.66773        3.67066
        3.96690        4.00785        4.03271        4.10565        4.19797
        4.20673        4.21296        4.23163        4.54421        5.03618
        5.08084        5.36312        5.37324        5.39637        5.47004
        5.72005        5.77220        5.78492        5.79530        6.05715
        6.12989        6.19059        6.22532       36.85096       51.55603
       51.57675       51.57888       51.78921
 Time used in FCKEIG, thr_jaco:   8.70D-02  4.60D-02  1.63D-04
 CPU and wall times used in FCKEIG, THR_FCKEIG:   8.71D-02  4.60D-02  3.83D-02
 -----------------------------------------------------------------------------

 *** DIIS iteration number    2
 RDSUPM called. NFMAT, ISYMDM(1:NFMAT)                     1
                     1

 ITDIIS, energy, error norm, change in energy, scr.thr., difden:
@ DIIS iter.   2    -360.742701118        9.52501D-01   -8.09D-01  -20    F

 (DIIS_RED) Control Parameters C2DIIS =         F NEVC =    2


 (DIIS_RED) B matrix:

               Column   1     Column   2
       1      14.67043541
       2       0.99538617     0.90725766
    ==== End of matrix output ====

 DIIS C vector; C2DIIS = F, LAMBDA = -9.07D-01
   -0.006486    1.006486
* Read MO coefficients from SIRIUS.RST with label "NEWORB  " and header info: 20Dec18  DIIS   2
      Virial theorem: -V/T =      2.004141
@    MULPOP   N      -0.91; H       0.25; H       0.27; H       0.28; O      -0.62; O      -0.54; O      -0.69; O      -0.61; H       0.34; H       0.33; 
@             H       0.32; H       0.25; H       0.29; H       0.39; H       0.32; H       0.32; 
   2  Level shift: doubly occupied orbital energies shifted by -5.00D-02

 DIIS Fock eigenvalues in symmetry 1
      -20.66708      -20.65344      -20.60136      -20.58585      -15.46830
       -1.40990       -1.37194       -1.35839       -1.35365       -1.16160
       -0.77828       -0.74313       -0.73249       -0.71511       -0.66585
       -0.65586       -0.64489       -0.62342       -0.61854       -0.60676
       -0.58561       -0.56510       -0.55240       -0.54823       -0.45818
        0.09079        0.12122        0.13572        0.19098        0.22819
        0.24359        0.24747        0.26016        0.28050        0.28612
        0.29878        0.30686        0.33579        0.37127        0.38861
        0.40084        0.43288        0.46885        0.56045        0.59832
        0.60533        0.61757        0.62169        0.65170        0.66275
        0.67858        0.68188        0.72155        0.86270        0.95865
        0.98684        1.01207        1.02065        1.02639        1.03894
        1.05201        1.06416        1.10995        1.11886        1.13512
        1.15954        1.16318        1.17895        1.24282        1.31401
        1.32287        1.37014        1.39694        1.46826        1.47169
        1.51068        1.53941        1.56051        1.57250        1.58693
        1.59892        1.63032        1.64643        1.72228        1.73921
        1.76270        1.78206        1.79055        1.83823        1.89447
        1.92112        1.93781        1.93936        1.97410        2.06611
        2.09097        2.23054        2.25776        2.28546        2.29580
        2.31670        2.35789        2.40545        2.43016        2.45349
        2.55751        2.65838        2.68777        2.69828        2.74595
        2.75932        2.80621        2.82214        2.86053        2.87871
        2.90216        2.94106        3.01037        3.10308        3.15913
        3.24519        3.39770        3.44152        3.44526        3.48065
        3.48795        3.50883        3.53298        3.55340        3.56931
        3.59416        3.64863        3.66165        3.67054        3.71338
        3.99089        4.02978        4.04781        4.07366        4.15851
        4.22846        4.24648        4.25179        4.72898        5.25375
        5.29876        5.31938        5.36074        5.39129        5.42425
        5.63893        5.74121        5.76242        5.80502        6.08036
        6.10238        6.13343        6.23171       37.20798       51.48607
       51.49464       51.51972       51.56493
 Time used in FCKEIG, thr_jaco:   1.03D-01  5.70D-02  4.05D-05
 CPU and wall times used in FCKEIG, THR_FCKEIG:   1.03D-01  5.70D-02  9.53D-03
 -----------------------------------------------------------------------------

 *** DIIS iteration number    3
 RDSUPM called. NFMAT, ISYMDM(1:NFMAT)                     1
                     1

 ITDIIS, energy, error norm, change in energy, scr.thr., difden:
@ DIIS iter.   3    -360.806254403        3.67521D-01   -6.36D-02  -20    F

 (DIIS_RED) Control Parameters C2DIIS =         F NEVC =    3


 (DIIS_RED) B matrix:

               Column   1     Column   2     Column   3
       1      14.67043541
       2       0.99538617     0.90725766
       3       0.67697939     0.04184002     0.13507150
    ==== End of matrix output ====

 DIIS C vector; C2DIIS = F, LAMBDA = -1.00D-01
   -0.043838    0.116077    0.927761
* Read MO coefficients from SIRIUS.RST with label "NEWORB  " and header info: 20Dec18  DIIS   3
      Virial theorem: -V/T =      2.001764
@    MULPOP   N      -0.87; H       0.24; H       0.26; H       0.25; O      -0.69; O      -0.61; O      -0.79; O      -0.65; H       0.38; H       0.36; 
@             H       0.36; H       0.28; H       0.35; H       0.46; H       0.34; H       0.34; 
   3  Level shift: doubly occupied orbital energies shifted by -2.50D-02

 DIIS Fock eigenvalues in symmetry 1
      -20.57127      -20.54683      -20.54159      -20.49313      -15.57110
       -1.36405       -1.33972       -1.31396       -1.28487       -1.16935
       -0.73497       -0.70894       -0.67983       -0.67215       -0.65334
       -0.63494       -0.60773       -0.58648       -0.56846       -0.54937
       -0.53714       -0.51088       -0.50302       -0.48387       -0.45092
        0.09334        0.12266        0.13896        0.19579        0.23158
        0.24938        0.25120        0.26497        0.28252        0.28862
        0.30313        0.30976        0.33809        0.37416        0.39196
        0.40148        0.43730        0.47357        0.57052        0.60934
        0.61774        0.62564        0.63090        0.65733        0.67083
        0.68219        0.68822        0.72082        0.86406        0.96947
        0.98817        1.02568        1.03173        1.04242        1.05277
        1.06712        1.07871        1.11756        1.13387        1.14410
        1.17071        1.17624        1.18813        1.25005        1.31368
        1.32725        1.37446        1.39779        1.47703        1.48177
        1.52384        1.55198        1.57008        1.58140        1.60015
        1.61006        1.63852        1.65755        1.73847        1.75006
        1.77205        1.79212        1.80272        1.84364        1.90218
        1.92993        1.94573        1.94775        1.97570        2.07116
        2.09781        2.24148        2.26901        2.29012        2.30733
        2.32632        2.35376        2.41786        2.44301        2.46378
        2.57165        2.66733        2.69606        2.70701        2.74670
        2.76918        2.81437        2.82878        2.86720        2.88647
        2.91029        2.94405        2.98998        3.08496        3.16142
        3.22851        3.44898        3.46278        3.46752        3.47906
        3.49718        3.53548        3.55661        3.58286        3.59015
        3.61367        3.66066        3.68635        3.68723        3.72763
        4.01537        4.05428        4.08643        4.10088        4.21147
        4.25341        4.26218        4.27871        4.67991        5.21414
        5.26044        5.38382        5.40553        5.41615        5.43573
        5.72146        5.75612        5.79886        5.83059        6.10597
        6.17025        6.18408        6.24664       37.08431       51.54462
       51.55674       51.57944       51.63825
 Time used in FCKEIG, thr_jaco:   6.88D-02  3.00D-02  1.56D-05
 CPU and wall times used in FCKEIG, THR_FCKEIG:   6.89D-02  3.00D-02  3.68D-03
 -----------------------------------------------------------------------------

 *** DIIS iteration number    4
 RDSUPM called. NFMAT, ISYMDM(1:NFMAT)                     1
                     1

 ITDIIS, energy, error norm, change in energy, scr.thr., difden:
@ DIIS iter.   4    -360.815253830        1.23099D-01   -9.00D-03  -20    F

 (DIIS_RED) Control Parameters C2DIIS =         F NEVC =    4


 (DIIS_RED) B matrix:

               Column   1     Column   2     Column   3     Column   4
       1      14.67043541
       2       0.99538617     0.90725766
       3       0.67697939     0.04184002     0.13507150
       4      -0.00174010     0.08911642    -0.01153478     0.01515346
    ==== End of matrix output ====

 DIIS C vector; C2DIIS = F, LAMBDA = -4.28D-03
    0.000418   -0.096009    0.140899    0.954692
* Read MO coefficients from SIRIUS.RST with label "NEWORB  " and header info: 20Dec18  DIIS   4
      Virial theorem: -V/T =      2.002858
@    MULPOP   N      -0.95; H       0.25; H       0.27; H       0.27; O      -0.70; O      -0.61; O      -0.78; O      -0.67; H       0.39; H       0.37; 
@             H       0.36; H       0.28; H       0.35; H       0.45; H       0.35; H       0.35; 
   4  Level shift: doubly occupied orbital energies shifted by -1.25D-02

 DIIS Fock eigenvalues in symmetry 1
      -20.57517      -20.53929      -20.53700      -20.52314      -15.52893
       -1.35834       -1.32914       -1.30567       -1.28609       -1.14747
       -0.72734       -0.69831       -0.67134       -0.66620       -0.63487
       -0.61579       -0.59880       -0.57338       -0.55710       -0.54596
       -0.52690       -0.49596       -0.49034       -0.48144       -0.43021
        0.09344        0.12298        0.13964        0.19558        0.23145
        0.24833        0.25120        0.26524        0.28327        0.28903
        0.30213        0.30992        0.33860        0.37511        0.39255
        0.40354        0.43890        0.47417        0.56892        0.60825
        0.61499        0.62465        0.62993        0.65874        0.66969
        0.68266        0.68743        0.72320        0.86714        0.97071
        0.99201        1.02593        1.03506        1.04045        1.05132
        1.06447        1.07758        1.11763        1.13198        1.14354
        1.16981        1.17398        1.18765        1.24963        1.31718
        1.32916        1.37534        1.39931        1.47660        1.48144
        1.52074        1.54957        1.56855        1.58007        1.59764
        1.60832        1.63780        1.65553        1.73513        1.74779
        1.77119        1.79066        1.80168        1.84479        1.90173
        1.92804        1.94454        1.94681        1.97841        2.07395
        2.09970        2.23925        2.26726        2.29347        2.30128
        2.32454        2.35838        2.41436        2.43946        2.46179
        2.57150        2.66642        2.69481        2.70508        2.74994
        2.76551        2.81269        2.82751        2.86971        2.88537
        2.91187        2.94769        2.99899        3.09352        3.16572
        3.23625        3.44023        3.46079        3.46332        3.48264
        3.49719        3.53042        3.55449        3.57931        3.58355
        3.61883        3.65327        3.68207        3.68406        3.72742
        4.01092        4.04972        4.08450        4.09030        4.20001
        4.24972        4.26197        4.27406        4.69417        5.22762
        5.27457        5.37123        5.39118        5.40903        5.43505
        5.70023        5.75516        5.79061        5.82566        6.10030
        6.16080        6.16340        6.24493       37.11346       51.52996
       51.54528       51.57694       51.59669
 Time used in FCKEIG, thr_jaco:   6.72D-02  2.50D-02  5.24D-06
 CPU and wall times used in FCKEIG, THR_FCKEIG:   6.73D-02  2.50D-02  1.23D-03
 -----------------------------------------------------------------------------

 *** DIIS iteration number    5
 RDSUPM called. NFMAT, ISYMDM(1:NFMAT)                     1
                     1

 ITDIIS, energy, error norm, change in energy, scr.thr., difden:
@ DIIS iter.   5    -360.816516195        2.49888D-02   -1.26D-03  -20    F

 (DIIS_RED) Control Parameters C2DIIS =         F NEVC =    5


 (DIIS_RED) B matrix:

               Column   1     Column   2     Column   3     Column   4     Column   5
       1      14.67043541
       2       0.99538617     0.90725766
       3       0.67697939     0.04184002     0.13507150
       4      -0.00174010     0.08911642    -0.01153478     0.01515346
       5       0.01347624     0.00714810     0.00517504     0.00094638     0.00062444
    ==== End of matrix output ====

 DIIS C vector; C2DIIS = F, LAMBDA = -3.51D-04
    0.001482    0.004543   -0.062089   -0.124400    1.180464
* Read MO coefficients from SIRIUS.RST with label "NEWORB  " and header info: 20Dec18  DIIS   5
      Virial theorem: -V/T =      2.002445
@    MULPOP   N      -0.94; H       0.25; H       0.27; H       0.26; O      -0.71; O      -0.62; O      -0.80; O      -0.67; H       0.39; H       0.38; 
@             H       0.37; H       0.28; H       0.37; H       0.47; H       0.35; H       0.36; 

 DIIS Fock eigenvalues in symmetry 1
      -20.56108      -20.52462      -20.52406      -20.50466      -15.51129
       -1.34537       -1.31653       -1.29255       -1.27152       -1.13341
       -0.71486       -0.68631       -0.65824       -0.65340       -0.62155
       -0.60220       -0.58609       -0.56101       -0.54417       -0.53177
       -0.51314       -0.48231       -0.47627       -0.46602       -0.41597
        0.09348        0.12307        0.13978        0.19575        0.23137
        0.24831        0.25117        0.26536        0.28337        0.28912
        0.30193        0.30994        0.33858        0.37519        0.39267
        0.40384        0.43936        0.47453        0.56882        0.60823
        0.61509        0.62453        0.62983        0.65899        0.66964
        0.68266        0.68725        0.72343        0.86775        0.97146
        0.99257        1.02667        1.03582        1.04155        1.05233
        1.06524        1.07870        1.11811        1.13231        1.14332
        1.17055        1.17422        1.18825        1.24988        1.31782
        1.32968        1.37557        1.39961        1.47691        1.48186
        1.52055        1.54931        1.56808        1.57999        1.59769
        1.60827        1.63758        1.65550        1.73524        1.74760
        1.77105        1.79037        1.80179        1.84488        1.90170
        1.92742        1.94404        1.94663        1.97886        2.07444
        2.09995        2.23866        2.26709        2.29398        2.30151
        2.32386        2.35888        2.41410        2.43919        2.46134
        2.57191        2.66621        2.69425        2.70435        2.75045
        2.76500        2.81190        2.82709        2.86985        2.88465
        2.91171        2.94817        3.00011        3.09454        3.16638
        3.23737        3.44235        3.46161        3.46392        3.48386
        3.49738        3.53076        3.55512        3.58076        3.58400
        3.62058        3.65516        3.68246        3.68454        3.72740
        4.01127        4.05007        4.08496        4.09176        4.20221
        4.25023        4.26195        4.27448        4.69668        5.22986
        5.27679        5.37361        5.39340        5.41039        5.43571
        5.70347        5.75527        5.79135        5.82666        6.10105
        6.16150        6.16617        6.24480       37.11849       51.53164
       51.54732       51.57738       51.60254
 Time used in FCKEIG, thr_jaco:   5.00D-02  2.50D-02  1.06D-06
 CPU and wall times used in FCKEIG, THR_FCKEIG:   5.01D-02  2.50D-02  2.50D-04
 -----------------------------------------------------------------------------

 *** DIIS iteration number    6
 RDSUPM called. NFMAT, ISYMDM(1:NFMAT)                     1
                     1

 ITDIIS, energy, error norm, change in energy, scr.thr., difden:
@ DIIS iter.   6    -360.816610091        8.19972D-03   -9.39D-05  -20    F

 (DIIS_RED) Control Parameters C2DIIS =         F NEVC =    6


 (DIIS_RED) B matrix:

               Column   1     Column   2     Column   3     Column   4     Column   5     Column   6
       1      14.67043541
       2       0.99538617     0.90725766
       3       0.67697939     0.04184002     0.13507150
       4      -0.00174010     0.08911642    -0.01153478     0.01515346
       5       0.01347624     0.00714810     0.00517504     0.00094638     0.00062444
       6      -0.00270962    -0.00027660     0.00058992     0.00023854     0.00006964     0.00006724
    ==== End of matrix output ====

 DIIS C vector; C2DIIS = F, LAMBDA = -3.59D-05
    0.000523    0.008183   -0.023375   -0.089188    0.178209    0.925648
* Read MO coefficients from SIRIUS.RST with label "NEWORB  " and header info: 20Dec18  DIIS   6
      Virial theorem: -V/T =      2.002591
@    MULPOP   N      -0.94; H       0.25; H       0.27; H       0.26; O      -0.72; O      -0.62; O      -0.80; O      -0.68; H       0.39; H       0.38; 
@             H       0.37; H       0.28; H       0.37; H       0.47; H       0.35; H       0.36; 

 DIIS Fock eigenvalues in symmetry 1
      -20.56160      -20.52576      -20.52423      -20.50672      -15.51504
       -1.34551       -1.31654       -1.29291       -1.27206       -1.13460
       -0.71517       -0.68650       -0.65887       -0.65396       -0.62255
       -0.60312       -0.58643       -0.56118       -0.54475       -0.53239
       -0.51324       -0.48215       -0.47649       -0.46634       -0.41701
        0.09343        0.12306        0.13978        0.19565        0.23126
        0.24819        0.25106        0.26528        0.28326        0.28900
        0.30183        0.30983        0.33847        0.37500        0.39248
        0.40353        0.43903        0.47434        0.56864        0.60809
        0.61492        0.62434        0.62959        0.65866        0.66941
        0.68237        0.68712        0.72310        0.86737        0.97117
        0.99218        1.02644        1.03537        1.04116        1.05211
        1.06494        1.07843        1.11775        1.13199        1.14316
        1.17008        1.17395        1.18804        1.24949        1.31730
        1.32928        1.37528        1.39923        1.47657        1.48148
        1.52035        1.54900        1.56790        1.57965        1.59740
        1.60795        1.63738        1.65518        1.73496        1.74733
        1.77070        1.79017        1.80149        1.84449        1.90136
        1.92713        1.94380        1.94633        1.97833        2.07401
        2.09957        2.23824        2.26674        2.29330        2.30106
        2.32365        2.35818        2.41375        2.43886        2.46112
        2.57148        2.66585        2.69399        2.70402        2.74985
        2.76470        2.81167        2.82673        2.86947        2.88430
        2.91140        2.94769        2.99902        3.09351        3.16575
        3.23637        3.44166        3.46106        3.46354        3.48289
        3.49721        3.53050        3.55457        3.58024        3.58367
        3.61947        3.65430        3.68219        3.68405        3.72732
        4.01090        4.04971        4.08471        4.09117        4.20144
        4.24982        4.26186        4.27416        4.69471        5.22811
        5.27501        5.37288        5.39271        5.40978        5.43545
        5.70239        5.75514        5.79101        5.82598        6.10036
        6.16112        6.16511        6.24465       37.11482       51.53101
       51.54629       51.57721       51.60052
 Time used in FCKEIG, thr_jaco:   7.50D-02  3.10D-02  3.49D-07
 CPU and wall times used in FCKEIG, THR_FCKEIG:   7.51D-02  3.10D-02  8.20D-05
 -----------------------------------------------------------------------------

 *** DIIS iteration number    7
 RDSUPM called. NFMAT, ISYMDM(1:NFMAT)                     1
                     1

 ITDIIS, energy, error norm, change in energy, scr.thr., difden:
@ DIIS iter.   7    -360.816616979        2.46841D-03   -6.89D-06  -20    F

 (DIIS_RED) Control Parameters C2DIIS =         F NEVC =    7


 (DIIS_RED) B matrix:

               Column   1     Column   2     Column   3     Column   4     Column   5     Column   6
       1      14.67043541
       2       0.99538617     0.90725766
       3       0.67697939     0.04184002     0.13507150
       4      -0.00174010     0.08911642    -0.01153478     0.01515346
       5       0.01347624     0.00714810     0.00517504     0.00094638     0.00062444
       6      -0.00270962    -0.00027660     0.00058992     0.00023854     0.00006964     0.00006724
       7       0.00075202    -0.00000089     0.00008805    -0.00000431     0.00003721    -0.00000084

               Column   7
       7       0.00000609
    ==== End of matrix output ====

 DIIS C vector; C2DIIS = F, LAMBDA = -1.49D-06
   -0.000217   -0.001202    0.008445    0.023003   -0.152133    0.024116    1.097988
* Read MO coefficients from SIRIUS.RST with label "NEWORB  " and header info: 20Dec18  DIIS   7
      Virial theorem: -V/T =      2.002556
@    MULPOP   N      -0.94; H       0.25; H       0.27; H       0.26; O      -0.72; O      -0.62; O      -0.80; O      -0.68; H       0.39; H       0.38; 
@             H       0.37; H       0.28; H       0.37; H       0.47; H       0.35; H       0.36; 

 DIIS Fock eigenvalues in symmetry 1
      -20.56158      -20.52555      -20.52425      -20.50608      -15.51435
       -1.34549       -1.31651       -1.29283       -1.27175       -1.13437
       -0.71517       -0.68651       -0.65873       -0.65386       -0.62241
       -0.60298       -0.58648       -0.56124       -0.54473       -0.53218
       -0.51318       -0.48207       -0.47635       -0.46598       -0.41675
        0.09345        0.12307        0.13980        0.19567        0.23129
        0.24821        0.25109        0.26531        0.28329        0.28903
        0.30184        0.30987        0.33850        0.37503        0.39250
        0.40359        0.43911        0.47440        0.56865        0.60814
        0.61500        0.62437        0.62963        0.65874        0.66946
        0.68241        0.68714        0.72316        0.86744        0.97123
        0.99226        1.02651        1.03549        1.04129        1.05222
        1.06504        1.07856        1.11783        1.13206        1.14318
        1.17020        1.17399        1.18811        1.24954        1.31738
        1.32938        1.37534        1.39931        1.47664        1.48157
        1.52034        1.54903        1.56789        1.57965        1.59749
        1.60799        1.63740        1.65525        1.73504        1.74737
        1.77074        1.79021        1.80162        1.84454        1.90142
        1.92712        1.94380        1.94635        1.97843        2.07410
        2.09964        2.23822        2.26675        2.29339        2.30117
        2.32365        2.35828        2.41374        2.43885        2.46112
        2.57161        2.66589        2.69399        2.70399        2.74994
        2.76474        2.81166        2.82674        2.86950        2.88428
        2.91151        2.94777        2.99922        3.09368        3.16587
        3.23654        3.44194        3.46115        3.46360        3.48307
        3.49724        3.53052        3.55466        3.58045        3.58378
        3.61973        3.65458        3.68222        3.68413        3.72734
        4.01094        4.04975        4.08479        4.09141        4.20176
        4.24989        4.26188        4.27421        4.69511        5.22841
        5.27533        5.37311        5.39293        5.40991        5.43550
        5.70279        5.75515        5.79104        5.82610        6.10047
        6.16115        6.16549        6.24466       37.11549       51.53107
       51.54647       51.57718       51.60115
 Time used in FCKEIG, thr_jaco:   6.94D-02  2.80D-02  1.05D-07
 CPU and wall times used in FCKEIG, THR_FCKEIG:   6.96D-02  2.80D-02  2.47D-05
 -----------------------------------------------------------------------------

 *** DIIS iteration number    8
 RDSUPM called. NFMAT, ISYMDM(1:NFMAT)                     1
                     1

 ITDIIS, energy, error norm, change in energy, scr.thr., difden:
@ DIIS iter.   8    -360.816617610        3.91609D-04   -6.31D-07  -20    F

 (DIIS_RED) Control Parameters C2DIIS =         F NEVC =    8


 (DIIS_RED) B matrix:

               Column   1     Column   2     Column   3     Column   4     Column   5     Column   6
       1      14.67043541
       2       0.99538617     0.90725766
       3       0.67697939     0.04184002     0.13507150
       4      -0.00174010     0.08911642    -0.01153478     0.01515346
       5       0.01347624     0.00714810     0.00517504     0.00094638     0.00062444
       6      -0.00270962    -0.00027660     0.00058992     0.00023854     0.00006964     0.00006724
       7       0.00075202    -0.00000089     0.00008805    -0.00000431     0.00003721    -0.00000084
       8       0.00002148    -0.00000401    -0.00000079     0.00000299     0.00000120     0.00000157

               Column   7     Column   8
       7       0.00000609
       8       0.00000033     0.00000015
    ==== End of matrix output ====

 DIIS C vector; C2DIIS = F, LAMBDA = -8.83D-08
    0.000005   -0.000080   -0.000304   -0.000302    0.014265   -0.038702   -0.138340    1.163459
* Read MO coefficients from SIRIUS.RST with label "NEWORB  " and header info: 20Dec18  DIIS   8
      Virial theorem: -V/T =      2.002573
@    MULPOP   N      -0.94; H       0.25; H       0.27; H       0.26; O      -0.72; O      -0.62; O      -0.80; O      -0.68; H       0.39; H       0.38; 
@             H       0.37; H       0.28; H       0.37; H       0.47; H       0.35; H       0.36; 

 DIIS Fock eigenvalues in symmetry 1
      -20.56152      -20.52559      -20.52424      -20.50611      -15.51438
       -1.34546       -1.31651       -1.29284       -1.27176       -1.13437
       -0.71515       -0.68651       -0.65874       -0.65387       -0.62242
       -0.60299       -0.58647       -0.56125       -0.54476       -0.53220
       -0.51317       -0.48206       -0.47635       -0.46597       -0.41676
        0.09345        0.12307        0.13980        0.19568        0.23128
        0.24821        0.25109        0.26530        0.28329        0.28903
        0.30184        0.30987        0.33849        0.37502        0.39250
        0.40358        0.43911        0.47440        0.56865        0.60814
        0.61500        0.62437        0.62962        0.65873        0.66945
        0.68241        0.68714        0.72316        0.86744        0.97123
        0.99225        1.02651        1.03548        1.04129        1.05222
        1.06504        1.07856        1.11783        1.13206        1.14318
        1.17020        1.17399        1.18811        1.24953        1.31738
        1.32937        1.37534        1.39930        1.47664        1.48156
        1.52035        1.54902        1.56789        1.57965        1.59749
        1.60798        1.63739        1.65524        1.73503        1.74737
        1.77073        1.79020        1.80160        1.84454        1.90142
        1.92711        1.94380        1.94635        1.97842        2.07409
        2.09964        2.23820        2.26676        2.29339        2.30117
        2.32365        2.35827        2.41374        2.43885        2.46111
        2.57160        2.66588        2.69399        2.70398        2.74993
        2.76476        2.81166        2.82674        2.86950        2.88427
        2.91149        2.94776        2.99921        3.09368        3.16586
        3.23653        3.44193        3.46115        3.46360        3.48306
        3.49724        3.53054        3.55465        3.58044        3.58377
        3.61972        3.65457        3.68224        3.68411        3.72734
        4.01094        4.04975        4.08479        4.09140        4.20175
        4.24988        4.26188        4.27422        4.69509        5.22840
        5.27532        5.37311        5.39293        5.40990        5.43550
        5.70277        5.75515        5.79106        5.82607        6.10045
        6.16118        6.16547        6.24466       37.11547       51.53111
       51.54645       51.57720       51.60112
 Time used in FCKEIG, thr_jaco:   6.40D-02  2.40D-02  1.67D-08
 CPU and wall times used in FCKEIG, THR_FCKEIG:   6.48D-02  2.40D-02  3.92D-06
 -----------------------------------------------------------------------------

 *** DIIS iteration number    9
 RDSUPM called. NFMAT, ISYMDM(1:NFMAT)                     1
                     1

 ITDIIS, energy, error norm, change in energy, scr.thr., difden:
@ DIIS iter.   9    -360.816617633        1.06556D-04   -2.24D-08  -20    F

 (DIIS_RED) Control Parameters C2DIIS =         F NEVC =    8


 (DIIS_RED) B matrix:

               Column   1     Column   2     Column   3     Column   4     Column   5     Column   6
       1       0.00000001
       2       0.00000296     0.90725766
       3       0.00000095     0.04184002     0.13507150
       4       0.00000028     0.08911642    -0.01153478     0.01515346
       5       0.00000026     0.00714810     0.00517504     0.00094638     0.00062444
       6       0.00000005    -0.00027660     0.00058992     0.00023854     0.00006964     0.00006724
       7       0.00000011    -0.00000089     0.00008805    -0.00000431     0.00003721    -0.00000084
       8       0.00000002    -0.00000401    -0.00000079     0.00000299     0.00000120     0.00000157

               Column   7     Column   8
       7       0.00000609
       8       0.00000033     0.00000015
    ==== End of matrix output ====

 DIIS C vector; C2DIIS = F, LAMBDA = -7.62D-09
    1.071440    0.000049   -0.000264   -0.000834    0.005286   -0.000610   -0.045107   -0.029958
* Read MO coefficients from SIRIUS.RST with label "NEWORB  " and header info: 20Dec18  DIIS   9
      Virial theorem: -V/T =      2.002573
@    MULPOP   N      -0.94; H       0.25; H       0.27; H       0.26; O      -0.72; O      -0.62; O      -0.80; O      -0.68; H       0.39; H       0.38; 
@             H       0.37; H       0.28; H       0.37; H       0.47; H       0.35; H       0.36; 

 DIIS Fock eigenvalues in symmetry 1
      -20.56156      -20.52557      -20.52424      -20.50609      -15.51439
       -1.34548       -1.31651       -1.29283       -1.27175       -1.13437
       -0.71515       -0.68651       -0.65873       -0.65386       -0.62242
       -0.60299       -0.58649       -0.56126       -0.54476       -0.53220
       -0.51318       -0.48206       -0.47635       -0.46596       -0.41676
        0.09345        0.12307        0.13980        0.19568        0.23128
        0.24821        0.25109        0.26530        0.28329        0.28903
        0.30184        0.30987        0.33850        0.37502        0.39250
        0.40358        0.43911        0.47440        0.56865        0.60814
        0.61501        0.62437        0.62962        0.65873        0.66945
        0.68241        0.68714        0.72316        0.86744        0.97123
        0.99225        1.02651        1.03548        1.04129        1.05222
        1.06504        1.07856        1.11783        1.13206        1.14318
        1.17020        1.17399        1.18811        1.24953        1.31738
        1.32937        1.37534        1.39930        1.47664        1.48156
        1.52034        1.54902        1.56789        1.57965        1.59749
        1.60798        1.63739        1.65524        1.73503        1.74737
        1.77073        1.79020        1.80161        1.84454        1.90142
        1.92711        1.94380        1.94635        1.97842        2.07409
        2.09963        2.23820        2.26675        2.29338        2.30117
        2.32365        2.35827        2.41374        2.43885        2.46111
        2.57160        2.66588        2.69399        2.70398        2.74993
        2.76476        2.81166        2.82674        2.86949        2.88427
        2.91149        2.94776        2.99921        3.09367        3.16585
        3.23652        3.44194        3.46115        3.46360        3.48306
        3.49724        3.53052        3.55465        3.58045        3.58377
        3.61972        3.65457        3.68223        3.68412        3.72733
        4.01094        4.04974        4.08479        4.09140        4.20176
        4.24988        4.26188        4.27421        4.69509        5.22840
        5.27531        5.37311        5.39293        5.40990        5.43549
        5.70278        5.75515        5.79104        5.82608        6.10046
        6.16116        6.16548        6.24466       37.11546       51.53108
       51.54646       51.57719       51.60114
 Time used in FCKEIG, thr_jaco:   6.48D-02  2.30D-02  4.54D-09
 CPU and wall times used in FCKEIG, THR_FCKEIG:   6.49D-02  2.30D-02  1.07D-06
 -----------------------------------------------------------------------------

 *** DIIS iteration number   10
 RDSUPM called. NFMAT, ISYMDM(1:NFMAT)                     1
                     1

 ITDIIS, energy, error norm, change in energy, scr.thr., difden:
@ DIIS iter.  10    -360.816617634        3.93518D-05   -1.38D-09  -20    F

 (DIIS_RED) Control Parameters C2DIIS =         F NEVC =    8


 (DIIS_RED) B matrix:

               Column   1     Column   2     Column   3     Column   4     Column   5     Column   6
       1       0.00000001
       2       0.00000000     0.00000000
       3       0.00000095    -0.00000032     0.13507150
       4       0.00000028    -0.00000012    -0.01153478     0.01515346
       5       0.00000026    -0.00000004     0.00517504     0.00094638     0.00062444
       6       0.00000005     0.00000000     0.00058992     0.00023854     0.00006964     0.00006724
       7       0.00000011     0.00000001     0.00008805    -0.00000431     0.00003721    -0.00000084
       8       0.00000002     0.00000001    -0.00000079     0.00000299     0.00000120     0.00000157

               Column   7     Column   8
       7       0.00000609
       8       0.00000033     0.00000015
    ==== End of matrix output ====

 DIIS C vector; C2DIIS = F, LAMBDA = -7.53D-10
    0.191690    0.903186    0.000002    0.000010   -0.000381    0.002549    0.004029   -0.101084
* Read MO coefficients from SIRIUS.RST with label "NEWORB  " and header info: 20Dec18  DIIS  10
      Virial theorem: -V/T =      2.002573
@    MULPOP   N      -0.94; H       0.25; H       0.27; H       0.26; O      -0.72; O      -0.62; O      -0.80; O      -0.68; H       0.39; H       0.38; 
@             H       0.37; H       0.28; H       0.37; H       0.47; H       0.35; H       0.36; 

 DIIS Fock eigenvalues in symmetry 1
      -20.56154      -20.52558      -20.52424      -20.50610      -15.51438
       -1.34547       -1.31651       -1.29283       -1.27175       -1.13437
       -0.71515       -0.68651       -0.65873       -0.65386       -0.62242
       -0.60299       -0.58648       -0.56126       -0.54476       -0.53220
       -0.51317       -0.48206       -0.47635       -0.46596       -0.41676
        0.09345        0.12307        0.13980        0.19568        0.23128
        0.24821        0.25109        0.26530        0.28329        0.28903
        0.30184        0.30987        0.33850        0.37502        0.39250
        0.40358        0.43911        0.47440        0.56865        0.60814
        0.61501        0.62437        0.62962        0.65873        0.66945
        0.68241        0.68714        0.72316        0.86744        0.97123
        0.99225        1.02651        1.03548        1.04129        1.05222
        1.06504        1.07856        1.11783        1.13206        1.14318
        1.17020        1.17399        1.18811        1.24953        1.31738
        1.32937        1.37534        1.39930        1.47664        1.48156
        1.52034        1.54902        1.56789        1.57965        1.59749
        1.60798        1.63739        1.65524        1.73503        1.74737
        1.77073        1.79020        1.80161        1.84454        1.90142
        1.92711        1.94380        1.94635        1.97842        2.07409
        2.09963        2.23820        2.26675        2.29338        2.30118
        2.32365        2.35827        2.41374        2.43885        2.46111
        2.57160        2.66588        2.69399        2.70398        2.74993
        2.76476        2.81166        2.82674        2.86949        2.88427
        2.91149        2.94776        2.99921        3.09367        3.16585
        3.23652        3.44194        3.46115        3.46360        3.48306
        3.49724        3.53053        3.55465        3.58045        3.58377
        3.61972        3.65458        3.68223        3.68412        3.72733
        4.01094        4.04974        4.08479        4.09140        4.20176
        4.24988        4.26188        4.27421        4.69509        5.22840
        5.27531        5.37311        5.39293        5.40990        5.43549
        5.70278        5.75515        5.79105        5.82608        6.10045
        6.16117        6.16548        6.24466       37.11547       51.53109
       51.54645       51.57719       51.60113
 Time used in FCKEIG, thr_jaco:   5.73D-02  2.30D-02  1.67D-09
 CPU and wall times used in FCKEIG, THR_FCKEIG:   5.74D-02  2.30D-02  3.94D-07
 -----------------------------------------------------------------------------

 *** DIIS iteration number   11
 RDSUPM called. NFMAT, ISYMDM(1:NFMAT)                     1
                     1

 ITDIIS, energy, error norm, change in energy, scr.thr., difden:
@ DIIS iter.  11    -360.816617634        1.17856D-05   -1.36D-10  -20    F

 (DIIS_RED) Control Parameters C2DIIS =         F NEVC =    8


 (DIIS_RED) B matrix:

               Column   1     Column   2     Column   3     Column   4     Column   5     Column   6
       1       0.00000001
       2       0.00000000     0.00000000
       3       0.00000000    -0.00000000     0.00000000
       4       0.00000028    -0.00000012     0.00000006     0.01515346
       5       0.00000026    -0.00000004    -0.00000001     0.00094638     0.00062444
       6       0.00000005     0.00000000     0.00000001     0.00023854     0.00006964     0.00006724
       7       0.00000011     0.00000001    -0.00000000    -0.00000431     0.00003721    -0.00000084
       8       0.00000002     0.00000001     0.00000000     0.00000299     0.00000120     0.00000157

               Column   7     Column   8
       7       0.00000609
       8       0.00000033     0.00000015
    ==== End of matrix output ====

 DIIS C vector; C2DIIS = F, LAMBDA = -5.56D-11
   -0.075173    0.126848    0.953698    0.000006   -0.000149    0.000332    0.003011   -0.008572
* Read MO coefficients from SIRIUS.RST with label "NEWORB  " and header info: 20Dec18  DIIS  11
      Virial theorem: -V/T =      2.002573
@    MULPOP   N      -0.94; H       0.25; H       0.27; H       0.26; O      -0.72; O      -0.62; O      -0.80; O      -0.68; H       0.39; H       0.38; 
@             H       0.37; H       0.28; H       0.37; H       0.47; H       0.35; H       0.36; 

 DIIS Fock eigenvalues in symmetry 1
      -20.56154      -20.52558      -20.52424      -20.50610      -15.51438
       -1.34547       -1.31651       -1.29283       -1.27175       -1.13437
       -0.71515       -0.68651       -0.65873       -0.65386       -0.62242
       -0.60299       -0.58648       -0.56126       -0.54476       -0.53220
       -0.51317       -0.48206       -0.47635       -0.46596       -0.41676
        0.09345        0.12307        0.13980        0.19568        0.23128
        0.24821        0.25109        0.26530        0.28329        0.28903
        0.30184        0.30987        0.33850        0.37502        0.39250
        0.40358        0.43911        0.47440        0.56865        0.60814
        0.61501        0.62437        0.62962        0.65873        0.66945
        0.68241        0.68714        0.72316        0.86744        0.97123
        0.99225        1.02651        1.03548        1.04129        1.05222
        1.06504        1.07856        1.11783        1.13206        1.14318
        1.17020        1.17399        1.18811        1.24953        1.31738
        1.32937        1.37534        1.39930        1.47664        1.48156
        1.52034        1.54902        1.56789        1.57965        1.59749
        1.60798        1.63739        1.65524        1.73503        1.74737
        1.77073        1.79020        1.80161        1.84454        1.90142
        1.92711        1.94380        1.94635        1.97842        2.07409
        2.09963        2.23820        2.26675        2.29338        2.30118
        2.32365        2.35827        2.41374        2.43885        2.46111
        2.57160        2.66588        2.69399        2.70398        2.74993
        2.76476        2.81166        2.82674        2.86949        2.88427
        2.91149        2.94776        2.99921        3.09367        3.16585
        3.23652        3.44194        3.46115        3.46360        3.48306
        3.49724        3.53053        3.55465        3.58045        3.58377
        3.61972        3.65458        3.68223        3.68412        3.72733
        4.01094        4.04974        4.08479        4.09140        4.20176
        4.24988        4.26188        4.27421        4.69509        5.22840
        5.27531        5.37311        5.39293        5.40990        5.43549
        5.70278        5.75515        5.79105        5.82608        6.10045
        6.16117        6.16548        6.24466       37.11546       51.53109
       51.54645       51.57719       51.60113
 Time used in FCKEIG, thr_jaco:   6.39D-02  2.30D-02  5.02D-10
 CPU and wall times used in FCKEIG, THR_FCKEIG:   6.40D-02  2.30D-02  1.18D-07
 -----------------------------------------------------------------------------

 *** DIIS iteration number   12
 RDSUPM called. NFMAT, ISYMDM(1:NFMAT)                     1
                     1

 ITDIIS, energy, error norm, change in energy, scr.thr., difden:
@ DIIS iter.  12    -360.816617634        2.65657D-06   -9.66D-12  -20    F

 (DIIS_RED) Control Parameters C2DIIS =         F NEVC =    8


 (DIIS_RED) B matrix:

               Column   1     Column   2     Column   3     Column   4     Column   5     Column   6
       1     1.135414D-08
       2     4.458150D-10   1.548564D-09
       3     7.794763D-10  -6.993204D-11   1.388994D-10
       4     5.854927D-11   4.912523D-11   1.328683D-11   7.057357D-12
       5     2.558945D-07  -3.977223D-08  -1.320106D-08  -4.085775D-09   6.244388D-04
       6     5.403196D-08   4.155380D-09   6.611128D-09   2.997445D-09   6.963739D-05   6.723545D-05
       7     1.073507D-07   6.293149D-09  -2.402731D-09  -5.007924D-10   3.721033D-05  -8.442150D-07
       8     2.278986D-08   7.721856D-09   7.735458D-10   1.082697D-10   1.198670D-06   1.565844D-06

               Column   7     Column   8
       7     6.093070D-06
       8     3.349648D-07   1.533578D-07
    ==== End of matrix output ====

 DIIS C vector; C2DIIS = F, LAMBDA = -2.34D-12
[...]
       3       0.03529239     0.78016381     0.62457896
    ==== End of matrix output ====


 CCSD  Transition strength matrix for state nr. 13 of symmetry 1
 CCSD  excitation energy:15.07048019

 Gauge: length

               Column   1     Column   2     Column   3
       1     3.489642D-06   8.367887D-06   2.162087D-05
       2     8.367887D-06   2.006552D-05   5.184532D-05
       3     2.162087D-05   5.184532D-05   1.339543D-04
    ==== End of matrix output ====

 Principal values of diagonalized transition strength matrix:

             a.u.               
 1      -0.00000000
 2       0.00000000
 3       0.00015751

 Principal axis of diagonalized transition strength matrix:


               Column   1     Column   2     Column   3
       1       0.29960518     0.94238070     0.14884678
       2       0.87247490    -0.33375574     0.35692388
       3      -0.38603664    -0.02292883     0.92219845
    ==== End of matrix output ====


 CCSD   oscillator strength matrix for state nr. 13 of symmetry 1
 CCSD  excitation energy:15.07048019


               Column   1     Column   2     Column   3
       1       0.00003506     0.00008407     0.00021722
       2       0.00008407     0.00020160     0.00052089
       3       0.00021722     0.00052089     0.00134584
    ==== End of matrix output ====

 Principal values of diagonalized oscillator strength matrix:

             a.u.               
 1      -0.00000001
 2       0.00000000
 3       0.00158250

 Principal axis of diagonalized oscillator strength matrix:


               Column   1     Column   2     Column   3
       1       0.29960518     0.94238070     0.14884678
       2       0.87247490    -0.33375574     0.35692388
       3      -0.38603664    -0.02292883     0.92219845
    ==== End of matrix output ====


 CCSD  Transition strength matrix for state nr. 14 of symmetry 1
 CCSD  excitation energy:15.07932088

 Gauge: length

               Column   1     Column   2     Column   3
       1     1.000024D-05  -2.126734D-05   1.085093D-05
       2    -2.126734D-05   4.522143D-05  -2.307375D-05
       3     1.085093D-05  -2.307375D-05   1.177298D-05
    ==== End of matrix output ====

 Principal values of diagonalized transition strength matrix:

             a.u.               
 1      -0.00000000
 2       0.00000000
 3       0.00006700

 Principal axis of diagonalized transition strength matrix:


               Column   1     Column   2     Column   3
       1       0.88115914    -0.27253717    -0.38637036
       2       0.46308705     0.33250439     0.82157849
       3       0.09544084     0.90286451    -0.41919771
    ==== End of matrix output ====


 CCSD   oscillator strength matrix for state nr. 14 of symmetry 1
 CCSD  excitation energy:15.07932088


               Column   1     Column   2     Column   3
       1     1.005312D-04  -2.137981D-04   1.090831D-04
       2    -2.137981D-04   4.546057D-04  -2.319576D-04
       3     1.090831D-04  -2.319576D-04   1.183523D-04
    ==== End of matrix output ====

 Principal values of diagonalized oscillator strength matrix:

             a.u.               
 1      -0.00000001
 2      -0.00000000
 3       0.00067350

 Principal axis of diagonalized oscillator strength matrix:


               Column   1     Column   2     Column   3
       1       0.88115914    -0.27253717    -0.38637036
       2       0.46308705     0.33250439     0.82157849
       3       0.09544084     0.90286451    -0.41919771
    ==== End of matrix output ====


 CCSD  Transition strength matrix for state nr. 15 of symmetry 1
 CCSD  excitation energy:15.08967176

 Gauge: length

               Column   1     Column   2     Column   3
       1       0.00000013    -0.00001175     0.00000329
       2      -0.00001175     0.00102307    -0.00028613
       3       0.00000329    -0.00028613     0.00008002
    ==== End of matrix output ====

 Principal values of diagonalized transition strength matrix:

             a.u.               
 1      -0.00000000
 2      -0.00000000
 3       0.00110323

 Principal axis of diagonalized transition strength matrix:


               Column   1     Column   2     Column   3
       1       0.45237991     0.89175675    -0.01105944
       2       0.24502398    -0.11235558     0.96298467
       3       0.85750549    -0.43834474    -0.26932920
    ==== End of matrix output ====


 CCSD   oscillator strength matrix for state nr. 15 of symmetry 1
 CCSD  excitation energy:15.08967176


               Column   1     Column   2     Column   3
       1       0.00000135    -0.00011820     0.00003305
       2      -0.00011820     0.01029183    -0.00287844
       3       0.00003305    -0.00287844     0.00080503
    ==== End of matrix output ====

 Principal values of diagonalized oscillator strength matrix:

             a.u.               
 1      -0.00000002
 2       0.00000000
 3       0.01109824

 Principal axis of diagonalized oscillator strength matrix:


               Column   1     Column   2     Column   3
       1       0.45237991     0.89175675    -0.01105944
       2       0.24502398    -0.11235558     0.96298467
       3       0.85750549    -0.43834474    -0.26932920
    ==== End of matrix output ====

  Total time for    135 linear response residues:      13.28 seconds.
  

 *******************************************************************************
 *******************************************************************************
 *                                                                             *
 *                                                                             *
 *                   SUMMARY OF COUPLED CLUSTER CALCULATION                    *
 *                                                                             *
 *                                                                             *
 *******************************************************************************
 *******************************************************************************

                                                                                
                                                                                
            Total SCF   energy:                  -360.8166176344                
            Total MP2   energy:                  -361.9235469367                
            Total CCSD  energy:                  -361.9616227934                
                                                                                
                                                                                
            Total SCF   energy:                  -360.8166176344                
            Total RSTAR energy:                  -361.9616227934                
            Total CCSD  energy:                  -361.9616836866                
                                                                                
                                                                                
            Total SCF   energy:                  -360.8166176344                
            Total RSTAR energy:                  -361.9616836866                
            Total CCSD  energy:                  -361.9616870024                
                                                                                
                                                                                
            Total SCF   energy:                  -360.8166176344                
            Total RSTAR energy:                  -361.9616870024                
            Total CCSD  energy:                  -361.9616872101                
                                                                                
                                                                                
            Total SCF   energy:                  -360.8166176344                
            Total RSTAR energy:                  -361.9616872101                
            Total CCSD  energy:                  -361.9616872242                
            CCSD Total  energy:                  -362.4256312616                
            CCSD E(PE-CC)     :                    -0.4581425385                
                                                                                
                                                                                
 +=============================================================================+
 |  sym. | Exci.  |        CCSD       Excitation energies            | ||T1||  |
 |(spin, |        +------------------------------------------------------------+
 | spat) |        |     Hartree    |       eV.      |     cm-1       |    %    |
 +=============================================================================+
 | ^1A   |    1   |    14.8073080  |     402.92735  |   3249828.431  |  88.31  |
 | ^1A   |    2   |    14.8637300  |     404.46267  |   3262211.638  |  88.63  |
 | ^1A   |    3   |    14.8818579  |     404.95595  |   3266190.242  |  88.51  |
 | ^1A   |    4   |    14.8998824  |     405.44642  |   3270146.167  |  88.39  |
 | ^1A   |    5   |    14.9248132  |     406.12483  |   3275617.838  |  88.08  |
 | ^1A   |    6   |    14.9470700  |     406.73046  |   3280502.649  |  88.23  |
 | ^1A   |    7   |    14.9617983  |     407.13124  |   3283735.141  |  88.41  |
 | ^1A   |    8   |    14.9850208  |     407.76316  |   3288831.877  |  88.46  |
 | ^1A   |    9   |    14.9907935  |     407.92024  |   3290098.849  |  88.29  |
 | ^1A   |   10   |    15.0025605  |     408.24044  |   3292681.412  |  88.46  |
 | ^1A   |   11   |    15.0089394  |     408.41402  |   3294081.401  |  88.42  |
 | ^1A   |   12   |    15.0540177  |     409.64066  |   3303974.958  |  87.80  |
 | ^1A   |   13   |    15.0704802  |     410.08863  |   3307588.054  |  87.91  |
 | ^1A   |   14   |    15.0793209  |     410.32919  |   3309528.361  |  87.96  |
 | ^1A   |   15   |    15.0896718  |     410.61086  |   3311800.115  |  88.17  |
 +=============================================================================+
                                                                                
                                                                                
     Total energies in Hartree:                                                 
             1 ^1A       -347.1601807401                                        
             2 ^1A       -347.1037586986                                        
             3 ^1A       -347.0856308426                                        
             4 ^1A       -347.0676063211                                        
             5 ^1A       -347.0426755556                                        
             6 ^1A       -347.0204187195                                        
             7 ^1A       -347.0056904018                                        
             8 ^1A       -346.9824679617                                        
             9 ^1A       -346.9766952145                                        
            10 ^1A       -346.9649281904                                        
            11 ^1A       -346.9585493718                                        
            12 ^1A       -346.9134710073                                        
            13 ^1A       -346.8970085320                                        
            14 ^1A       -346.8881678444                                        
            15 ^1A       -346.8778169679                                        
                                                                                
                                                                                
 +=============================================================================+
 |  sym. | Exci.  |        CCSD       Length   Gauge Oscillator Strength       |
 |(spin, |        +------------------------------------------------------------+
 | spat) |        | Dipole Strength(a.u.) | Oscillator strength  | Direction   |
 +=============================================================================+
 | ^1A   |    1   |        0.0003711      |      0.0036631       |  (Y,Z)      |
 | ^1A   |    2   |        0.0019242      |      0.0190676       |  (Y,Z)      |
 | ^1A   |    3   |        0.0013455      |      0.0133495       |  (Y,Z)      |
 | ^1A   |    4   |        0.0013330      |      0.0132414       |  (Y,Z)      |
 | ^1A   |    5   |        0.0006499      |      0.0064660       |  (Y,Z)      |
 | ^1A   |    6   |        0.0011179      |      0.0111396       |  (Y,Z)      |
 | ^1A   |    7   |        0.0004638      |      0.0046264       |  (Y,Z)      |
 | ^1A   |    8   |        0.0009697      |      0.0096874       |  (Y,Z)      |
 | ^1A   |    9   |        0.0007697      |      0.0076925       |  (Y,Z)      |
 | ^1A   |   10   |        0.0015220      |      0.0152222       |  (Y,Z)      |
 | ^1A   |   11   |        0.0012081      |      0.0120881       |  (Y,Z)      |
 | ^1A   |   12   |        0.0000605      |      0.0006075       |  (Y,Z)      |
 | ^1A   |   13   |        0.0001575      |      0.0015825       |  (Y,Z)      |
 | ^1A   |   14   |        0.0000670      |      0.0006735       |  (Y,Z)      |
 | ^1A   |   15   |        0.0011032      |      0.0110982       |  (Y,Z)      |
 +=============================================================================+

  1 a.u. =        27.21138 eV.  
  1 a.u. =    219474.62934 cm-1.
  

 *******************************************************************************
 *******************************************************************************
 *                                                                             *
 *                                                                             *
 *                      END OF COUPLED CLUSTER CALCULATION                     *
 *                                                                             *
 *                                                                             *
 *******************************************************************************
 *******************************************************************************


 CPU and wall time for CC :  203343.393   87228.392

 
     Date and time (Linux)  : Fri Dec 21 06:03:38 2018
     Host name              : s71p32.deic.sdu.dk                      


                      .-------------------------------------.
                      | End of Coupled Cluster Section (CC) |
                      `-------------------------------------'

  Total CPU  time used in DALTON:  56 hours 32 minutes 37 seconds
  Total wall time used in DALTON:  24 hours 16 minutes  0 seconds

 
     Date and time (Linux)  : Fri Dec 21 06:03:38 2018
     Host name              : s71p32.deic.sdu.dk                      
  

 +---------------------------------------------------------+ 
 | List of selected calculated molecular properties (a.u.) | 
 +---------------------------------------------------------+ 

  Properties are read from unit number                      4

 CCSD       properties :
 #  1 1 PE-CCSD  Ground state Energy =    -362.4256312616
 #  2 1 E(PE-CC) Ground state Energy =      -0.4581425385
 #  3 1 Sy: 1 Sp: 1 Exc:  1 E_tot:   -347.1601807401 w:     14.8073079830 E_grs:   -361.9674887231
 #  4 1 Exctot   Excited state Energy =    -347.1601807401
 #  5 1 Sy: 1 Sp: 1 Exc:  2 E_tot:   -347.1037586986 w:     14.8637300245 E_grs:   -361.9674887231
 #  6 1 Exctot   Excited state Energy =    -347.1037586986
 #  7 1 Sy: 1 Sp: 1 Exc:  3 E_tot:   -347.0856308426 w:     14.8818578805 E_grs:   -361.9674887231
 #  8 1 Exctot   Excited state Energy =    -347.0856308426
 #  9 1 Sy: 1 Sp: 1 Exc:  4 E_tot:   -347.0676063211 w:     14.8998824020 E_grs:   -361.9674887231
 # 10 1 Exctot   Excited state Energy =    -347.0676063211
 # 11 1 Sy: 1 Sp: 1 Exc:  5 E_tot:   -347.0426755556 w:     14.9248131675 E_grs:   -361.9674887231
 # 12 1 Exctot   Excited state Energy =    -347.0426755556
 # 13 1 Sy: 1 Sp: 1 Exc:  6 E_tot:   -347.0204187195 w:     14.9470700036 E_grs:   -361.9674887231
 # 14 1 Exctot   Excited state Energy =    -347.0204187195
 # 15 1 Sy: 1 Sp: 1 Exc:  7 E_tot:   -347.0056904018 w:     14.9617983213 E_grs:   -361.9674887231
 # 16 1 Exctot   Excited state Energy =    -347.0056904018
 # 17 1 Sy: 1 Sp: 1 Exc:  8 E_tot:   -346.9824679617 w:     14.9850207614 E_grs:   -361.9674887231
 # 18 1 Exctot   Excited state Energy =    -346.9824679617
 # 19 1 Sy: 1 Sp: 1 Exc:  9 E_tot:   -346.9766952145 w:     14.9907935086 E_grs:   -361.9674887231
 # 20 1 Exctot   Excited state Energy =    -346.9766952145
 # 21 1 Sy: 1 Sp: 1 Exc: 10 E_tot:   -346.9649281904 w:     15.0025605327 E_grs:   -361.9674887231
 # 22 1 Exctot   Excited state Energy =    -346.9649281904
 # 23 1 Sy: 1 Sp: 1 Exc: 11 E_tot:   -346.9585493718 w:     15.0089393513 E_grs:   -361.9674887231
 # 24 1 Exctot   Excited state Energy =    -346.9585493718
 # 25 1 Sy: 1 Sp: 1 Exc: 12 E_tot:   -346.9134710073 w:     15.0540177158 E_grs:   -361.9674887231
 # 26 1 Exctot   Excited state Energy =    -346.9134710073
 # 27 1 Sy: 1 Sp: 1 Exc: 13 E_tot:   -346.8970085320 w:     15.0704801911 E_grs:   -361.9674887231
 # 28 1 Exctot   Excited state Energy =    -346.8970085320
 # 29 1 Sy: 1 Sp: 1 Exc: 14 E_tot:   -346.8881678444 w:     15.0793208787 E_grs:   -361.9674887231
 # 30 1 Exctot   Excited state Energy =    -346.8881678444
 # 31 1 Sy: 1 Sp: 1 Exc: 15 E_tot:   -346.8778169679 w:     15.0896717552 E_grs:   -361.9674887231
 # 32 1 Exctot   Excited state Energy =    -346.8778169679
 # 33 1 |<O|XDIPLEN |i(14.807308)>| =     0.00835465
 # 35 1 |<O|XDIPLEN |i(14.863730)>| =     0.01729362
 # 37 1 |<O|XDIPLEN |i(14.881858)>| =     0.03481033
 # 39 1 |<O|XDIPLEN |i(14.899882)>| =     0.01185520
 # 41 1 |<O|XDIPLEN |i(14.924813)>| =     0.02346168
 # 43 1 |<O|XDIPLEN |i(14.947070)>| =     0.01128837
 # 45 1 |<O|XDIPLEN |i(14.961798)>| =     0.01596929
 # 47 1 |<O|XDIPLEN |i(14.985021)>| =     0.00181832
 # 49 1 |<O|XDIPLEN |i(14.990794)>| =     0.02755958
 # 51 1 |<O|XDIPLEN |i(15.002561)>| =     0.01735787
 # 53 1 |<O|XDIPLEN |i(15.008939)>| =     0.03044981
 # 55 1 |<O|XDIPLEN |i(15.054018)>| =     0.00460307
 # 57 1 |<O|XDIPLEN |i(15.070480)>| =     0.00186806
 # 59 1 |<O|XDIPLEN |i(15.079321)>| =     0.00316232
 # 61 1 |<O|XDIPLEN |i(15.089672)>| =     0.00036678
 # 63 1 |<O|YDIPLEN |i(14.807308)>| =     0.01422351
 # 65 1 |<O|YDIPLEN |i(14.863730)>| =     0.00576153
 # 67 1 |<O|YDIPLEN |i(14.881858)>| =     0.00929776
 # 69 1 |<O|YDIPLEN |i(14.899882)>| =     0.03451813
 # 71 1 |<O|YDIPLEN |i(14.924813)>| =     0.00100083
 # 73 1 |<O|YDIPLEN |i(14.947070)>| =     0.01250507
 # 75 1 |<O|YDIPLEN |i(14.961798)>| =     0.01081724
 # 77 1 |<O|YDIPLEN |i(14.985021)>| =     0.00695660
 # 79 1 |<O|YDIPLEN |i(14.990794)>| =     0.00254238
 # 81 1 |<O|YDIPLEN |i(15.002561)>| =     0.01932675
 # 83 1 |<O|YDIPLEN |i(15.008939)>| =     0.01662347
 # 85 1 |<O|YDIPLEN |i(15.054018)>| =     0.00396644
 # 87 1 |<O|YDIPLEN |i(15.070480)>| =     0.00447946
 # 89 1 |<O|YDIPLEN |i(15.079321)>| =     0.00672469
 # 91 1 |<O|YDIPLEN |i(15.089672)>| =     0.03198543
 # 93 1 |<O|ZDIPLEN |i(14.807308)>| =     0.00994848
 # 95 1 |<O|ZDIPLEN |i(14.863730)>| =     0.03989964
 # 97 1 |<O|ZDIPLEN |i(14.881858)>| =     0.00688028
 # 99 1 |<O|ZDIPLEN |i(14.899882)>| =     0.00099652
 #101 1 |<O|ZDIPLEN |i(14.924813)>| =     0.00992015
 #103 1 |<O|ZDIPLEN |i(14.947070)>| =     0.02888085
 #105 1 |<O|ZDIPLEN |i(14.961798)>| =     0.00958066
 #107 1 |<O|ZDIPLEN |i(14.985021)>| =     0.03029862
 #109 1 |<O|ZDIPLEN |i(14.990794)>| =     0.00193059
 #111 1 |<O|ZDIPLEN |i(15.002561)>| =     0.02910568
 #113 1 |<O|ZDIPLEN |i(15.008939)>| =     0.00213496
 #115 1 |<O|ZDIPLEN |i(15.054018)>| =     0.00485960
 #117 1 |<O|ZDIPLEN |i(15.070480)>| =     0.01157386
 #119 1 |<O|ZDIPLEN |i(15.079321)>| =     0.00343118
 #121 1 |<O|ZDIPLEN |i(15.089672)>| =     0.00894566

 THE_END   
