

     ************************************************************************
     *************** Dalton - An Electronic Structure Program ***************
     ************************************************************************

    This is output from DALTON release Dalton2017.alpha (2016)
         ( Web site: http://daltonprogram.org )

   ----------------------------------------------------------------------------

    NOTE:
     
    Dalton is an experimental code for the evaluation of molecular
    properties using (MC)SCF, DFT, CI, and CC wave functions.
    The authors accept no responsibility for the performance of
    the code or for the correctness of the results.
     
    The code (in whole or part) is provided under a licence and
    is not to be reproduced for further distribution without
    the written permission of the authors or their representatives.
     
    See the home page "http://daltonprogram.org" for further information.
     
    If results obtained with this code are published,
    the appropriate citations would be both of:
     
       K. Aidas, C. Angeli, K. L. Bak, V. Bakken, R. Bast,
       L. Boman, O. Christiansen, R. Cimiraglia, S. Coriani,
       P. Dahle, E. K. Dalskov, U. Ekstroem,
       T. Enevoldsen, J. J. Eriksen, P. Ettenhuber, B. Fernandez,
       L. Ferrighi, H. Fliegl, L. Frediani, K. Hald, A. Halkier,
       C. Haettig, H. Heiberg, T. Helgaker, A. C. Hennum,
       H. Hettema, E. Hjertenaes, S. Hoest, I.-M. Hoeyvik,
       M. F. Iozzi, B. Jansik, H. J. Aa. Jensen, D. Jonsson,
       P. Joergensen, J. Kauczor, S. Kirpekar,
       T. Kjaergaard, W. Klopper, S. Knecht, R. Kobayashi, H. Koch,
       J. Kongsted, A. Krapp, K. Kristensen, A. Ligabue,
       O. B. Lutnaes, J. I. Melo, K. V. Mikkelsen, R. H. Myhre,
       C. Neiss, C. B. Nielsen, P. Norman, J. Olsen,
       J. M. H. Olsen, A. Osted, M. J. Packer, F. Pawlowski,
       T. B. Pedersen, P. F. Provasi, S. Reine, Z. Rinkevicius,
       T. A. Ruden, K. Ruud, V. Rybkin, P. Salek, C. C. M. Samson,
       A. Sanchez de Meras, T. Saue, S. P. A. Sauer,
       B. Schimmelpfennig, K. Sneskov, A. H. Steindal,
       K. O. Sylvester-Hvid, P. R. Taylor, A. M. Teale,
       E. I. Tellgren, D. P. Tew, A. J. Thorvaldsen, L. Thoegersen,
       O. Vahtras, M. A. Watson, D. J. D. Wilson, M. Ziolkowski
       and H. Agren,
       "The Dalton quantum chemistry program system",
       WIREs Comput. Mol. Sci. 2014, 4:269–284 (doi: 10.1002/wcms.1172)
     
    and
     
       Dalton, a Molecular Electronic Structure Program,
       Release Dalton2017.alpha (2016), see http://daltonprogram.org
   ----------------------------------------------------------------------------

    Authors in alphabetical order (major contribution(s) in parenthesis):

  Kestutis Aidas,           Vilnius University,           Lithuania   (QM/MM)
  Celestino Angeli,         University of Ferrara,        Italy       (NEVPT2)
  Keld L. Bak,              UNI-C,                        Denmark     (AOSOPPA, non-adiabatic coupling, magnetic properties)
  Vebjoern Bakken,          University of Oslo,           Norway      (DALTON; geometry optimizer, symmetry detection)
  Radovan Bast,             UiT The Arctic U. of Norway,  Norway      (DALTON installation and execution frameworks)
  Pablo Baudin,             University of Valencia,       Spain       (Cholesky excitation energies)
  Linus Boman,              NTNU,                         Norway      (Cholesky decomposition and subsystems)
  Ove Christiansen,         Aarhus University,            Denmark     (CC module)
  Renzo Cimiraglia,         University of Ferrara,        Italy       (NEVPT2)
  Sonia Coriani,            University of Trieste,        Italy       (CC module, MCD in RESPONS)
  Janusz Cukras,            University of Trieste,        Italy       (MChD in RESPONS)
  Paal Dahle,               University of Oslo,           Norway      (Parallelization)
  Erik K. Dalskov,          UNI-C,                        Denmark     (SOPPA)
  Thomas Enevoldsen,        Univ. of Southern Denmark,    Denmark     (SOPPA)
  Janus J. Eriksen,         Aarhus University,            Denmark     (Polarizable embedding model, TDA)
  Rasmus Faber,             University of Copenhagen,     Denmark     (Vib.avg. NMR with SOPPA, parallel AO-SOPPA)
  Berta Fernandez,          U. of Santiago de Compostela, Spain       (doublet spin, ESR in RESPONS)
  Lara Ferrighi,            Aarhus University,            Denmark     (PCM Cubic response)
  Heike Fliegl,             University of Oslo,           Norway      (CCSD(R12))
  Luca Frediani,            UiT The Arctic U. of Norway,  Norway      (PCM)
  Bin Gao,                  UiT The Arctic U. of Norway,  Norway      (Gen1Int library)
  Christof Haettig,         Ruhr-University Bochum,       Germany     (CC module)
  Kasper Hald,              Aarhus University,            Denmark     (CC module)
  Asger Halkier,            Aarhus University,            Denmark     (CC module)
  Frederik Beyer Hansen,    University of Copenhagen,     Denmark     (Parallel AO-SOPPA)
  Erik D. Hedegaard,        Univ. of Southern Denmark,    Denmark     (Polarizable embedding model, QM/MM)
  Hanne Heiberg,            University of Oslo,           Norway      (geometry analysis, selected one-electron integrals)
  Trygve Helgaker,          University of Oslo,           Norway      (DALTON; ABACUS, ERI, DFT modules, London, and much more)
  Alf Christian Hennum,     University of Oslo,           Norway      (Parity violation)
  Hinne Hettema,            University of Auckland,       New Zealand (quadratic response in RESPONS; SIRIUS supersymmetry)
  Eirik Hjertenaes,         NTNU,                         Norway      (Cholesky decomposition)
  Pi A. B. Haase,           University of Copenhagen,     Denmark     (Triplet AO-SOPPA)
  Maria Francesca Iozzi,    University of Oslo,           Norway      (RPA)
  Brano Jansik              Technical Univ. of Ostrava    Czech Rep.  (DFT cubic response)
  Hans Joergen Aa. Jensen,  Univ. of Southern Denmark,    Denmark     (DALTON; SIRIUS, RESPONS, ABACUS modules, London, and much more)
  Dan Jonsson,              UiT The Arctic U. of Norway,  Norway      (cubic response in RESPONS module)
  Poul Joergensen,          Aarhus University,            Denmark     (RESPONS, ABACUS, and CC modules)
  Maciej Kaminski,          University of Warsaw,         Poland      (CPPh in RESPONS)
  Joanna Kauczor,           Linkoeping University,        Sweden      (Complex polarization propagator (CPP) module)
  Sheela Kirpekar,          Univ. of Southern Denmark,    Denmark     (Mass-velocity & Darwin integrals)
  Wim Klopper,              KIT Karlsruhe,                Germany     (R12 code in CC, SIRIUS, and ABACUS modules)
  Stefan Knecht,            ETH Zurich,                   Switzerland (Parallel CI and MCSCF)
  Rika Kobayashi,           Australian National Univ.,    Australia   (DIIS in CC, London in MCSCF)
  Henrik Koch,              NTNU,                         Norway      (CC module, Cholesky decomposition)
  Jacob Kongsted,           Univ. of Southern Denmark,    Denmark     (Polarizable embedding model, QM/MM)
  Andrea Ligabue,           University of Modena,         Italy       (CTOCD, AOSOPPA)
  Nanna H. List             Univ. of Southern Denmark,    Denmark     (Polarizable embedding model)
  Ola B. Lutnaes,           University of Oslo,           Norway      (DFT Hessian)
  Juan I. Melo,             University of Buenos Aires,   Argentina   (LRESC, Relativistic Effects on NMR Shieldings)
  Kurt V. Mikkelsen,        University of Copenhagen,     Denmark     (MC-SCRF and QM/MM)
  Rolf H. Myhre,            NTNU,                         Norway      (Cholesky, subsystems and ECC2)
  Christian Neiss,          Univ. Erlangen-Nuernberg,     Germany     (CCSD(R12))
  Christian B. Nielsen,     University of Copenhagen,     Denmark     (QM/MM)
  Patrick Norman,           Linkoeping University,        Sweden      (Cubic response and complex frequency response in RESPONS)
  Jeppe Olsen,              Aarhus University,            Denmark     (SIRIUS CI/density modules)
  Jogvan Magnus H. Olsen,   Univ. of Southern Denmark,    Denmark     (Polarizable embedding model, QM/MM)
  Anders Osted,             Copenhagen University,        Denmark     (QM/MM)
  Martin J. Packer,         University of Sheffield,      UK          (SOPPA)
  Filip Pawlowski,          Kazimierz Wielki University,  Poland      (CC3)
  Morten N. Pedersen,       Univ. of Southern Denmark,    Denmark     (Polarizable embedding model)
  Thomas B. Pedersen,       University of Oslo,           Norway      (Cholesky decomposition)
  Patricio F. Provasi,      University of Northeastern,   Argentina   (Analysis of coupling constants in localized orbitals)
  Zilvinas Rinkevicius,     KTH Stockholm,                Sweden      (open-shell DFT, ESR)
  Elias Rudberg,            KTH Stockholm,                Sweden      (DFT grid and basis info)
  Torgeir A. Ruden,         University of Oslo,           Norway      (Numerical derivatives in ABACUS)
  Kenneth Ruud,             UiT The Arctic U. of Norway,  Norway      (DALTON; ABACUS magnetic properties and much more)
  Pawel Salek,              KTH Stockholm,                Sweden      (DALTON; DFT code)
  Claire C. M. Samson       University of Karlsruhe       Germany     (Boys localization, r12 integrals in ERI)
  Alfredo Sanchez de Meras, University of Valencia,       Spain       (CC module, Cholesky decomposition)
  Trond Saue,               Paul Sabatier University,     France      (direct Fock matrix construction)
  Stephan P. A. Sauer,      University of Copenhagen,     Denmark     (SOPPA(CCSD), SOPPA prop., AOSOPPA, vibrational g-factors)
  Bernd Schimmelpfennig,    Forschungszentrum Karlsruhe,  Germany     (AMFI module)
  Kristian Sneskov,         Aarhus University,            Denmark     (Polarizable embedding model, QM/MM)
  Arnfinn H. Steindal,      UiT The Arctic U. of Norway,  Norway      (parallel QM/MM, Polarizable embedding model)
  Casper Steinmann,         Univ. of Southern Denmark,    Denmark     (QFIT, Polarizable embedding model)
  K. O. Sylvester-Hvid,     University of Copenhagen,     Denmark     (MC-SCRF)
  Peter R. Taylor,          VLSCI/Univ. of Melbourne,     Australia   (Symmetry handling ABACUS, integral transformation)
  Andrew M. Teale,          University of Nottingham,     England     (DFT-AC, DFT-D)
  David P. Tew,             University of Bristol,        England     (CCSD(R12))
  Olav Vahtras,             KTH Stockholm,                Sweden      (triplet response, spin-orbit, ESR, TDDFT, open-shell DFT)
  David J. Wilson,          La Trobe University,          Australia   (DFT Hessian and DFT magnetizabilities)
  Hans Agren,               KTH Stockholm,                Sweden      (SIRIUS module, RESPONS, MC-SCRF solvation model)
 --------------------------------------------------------------------------------

     Date and time (Linux)  : Thu Dec 20 05:47:38 2018
     Host name              : s71p32.deic.sdu.dk                      

 * Work memory size             :  2048000000 = 15.259 gigabytes.

 * Directories for basis set searches:
   1) /work/sdujk/reinholdt/ECP-Sonia/mixed-basis
   2) /gpfs/gss1/work/sdujk/reinholdt/Programs/dalton-private/pe-cvs/basis


Compilation information
-----------------------

 Who compiled             | reinholdt
 Host                     | fe1.deic.sdu.dk
 System                   | Linux-3.10.0-327.36.3.el7.x86_64
 CMake generator          | Unix Makefiles
 Processor                | x86_64
 64-bit integers          | ON
 MPI                      | OFF
 Fortran compiler         | /opt/sys/apps/intel/2018.05/compilers_and_librarie
                          | s_2018.3.222/linux/bin/intel64/ifort
 Fortran compiler version | ifort (IFORT) 18.0.3 20180410
 C compiler               | /opt/sys/apps/intel/2018.05/compilers_and_librarie
                          | s_2018.3.222/linux/bin/intel64/icc
 C compiler version       | icc (ICC) 18.0.3 20180410
 C++ compiler             | /opt/sys/apps/intel/2018.05/compilers_and_librarie
                          | s_2018.3.222/linux/bin/intel64/icpc
 C++ compiler version     | icpc (ICC) 18.0.3 20180410
 Static linking           | OFF
 Last Git revision        | 252a54078a0f9a1f0a59b3262fa4a57829155fe9
 Git branch               | pe/cc-cvs
 Configuration time       | 2018-12-09 12:09:40.474621


   Content of the .dal input file
 ----------------------------------

**DALTON
.RUN WAVE FUNCTIONS
.PEQM
**INTEGRALS
.DIPLEN
**WAVE FUNCTIONS
.CC
*PRINT
!To check the origin of excit
.PRINTL
   0 11
*SCF INP
.THRESH
1.0D-7
*CC INP
.CCSD
.THRLEQ
 1.0D-9
.THRENR
 1.0D-10
.FROIMP
4
0
.PRINT
 1
.MAX IT
 1200
.MAXRED
 1200
.MXLRV
1199
*PECC
*CCEXCI
.NCCEXC
 15
.CVSEPARA
1
1
*CCLRSD
.DIPOLE
**END OF DALTON INPUT


   Content of the .mol file
 ----------------------------

ATOMBASIS


Atomtypes=5 Charge=0 Nosymm Angstrom
   7.00000    1    Basis=6-311++G**
N          0.000000        0.000000        0.000000
   1.00000    3    Basis=6-311++G**
H         -0.113818       -0.008972        0.990350
H         -0.436619       -0.825462       -0.358274
H          0.942070       -0.009928       -0.222225
   8.00000    4    Basis=6-311G**
O         -0.788956       -1.460330       -2.897238
O         -0.665608        2.186449       -1.219983
O         -0.170838        0.979297        3.239601
O          2.660495        1.061438        0.091784
   1.00000    8    Basis=6-311G**
H         -1.169333       -1.104885       -3.740086
H         -1.557012       -1.895931       -2.459296
H         -0.317428        1.968377       -2.114621
H         -0.449851        1.315757       -0.653535
H         -0.932131        0.380297        3.520217
H          0.175663        1.568757        3.961276
H          2.882927        2.011081       -0.120185
H          2.559537        0.873746        1.069939
Charge=8.0   Atoms=59    Basis=pointcharge ECP=pe_ecp
  1        4.584781        4.266805       -4.596282
  2       -3.824961       -4.275374        3.026812
  3       -4.198658       -1.943907        4.739791
  4       -5.854531        3.562726        5.919976
  5       -3.872438       -0.767620        0.878060
  6        4.807227        2.485452       -2.546619
  7        0.038143       -3.407298       -5.152933
  8        4.508134       -3.924008        6.040637
  9       -4.949747        2.901217       -2.293266
 10       -3.787926       -0.539392       -3.248803
 11       -2.384363       -3.439002       -1.563678
 12       -3.072982        2.068578        5.909739
 13        5.179488       -0.106603       -0.650053
 14        6.032932        5.263985       -0.155681
 15        3.091565        3.654513        2.994027
 16       -1.390998       -0.014114       -5.353859
 17       -3.687654        5.486686        5.620962
 18       -4.452951        2.838017        0.691521
 19        5.388494       -1.583825        4.773563
 20        0.498036       -4.721392        5.050702
 21        4.804707        5.213746        4.360784
 22        0.461604        4.157240       -5.575708
 23        4.295038       -3.727526       -3.354950
 24        1.979648        5.476401        0.925996
 25        0.266449       -1.354941        5.467144
 26       -2.160986        4.002021       -4.811421
 27       -3.371275        0.915720       -1.117312
 28        3.318276       -2.414355       -0.039441
 29        2.472926        5.931918       -5.015229
 30        2.245559       -0.074109        2.742527
 31        0.394013        1.616423       -3.896572
 32       -3.615245       -4.621594       -3.624881
 33        3.766268        3.911711       -0.484498
 34        2.093713       -1.362755       -2.552110
 35        1.566138       -4.698634       -3.530078
 36       -2.257698       -0.694845        3.283747
 37       -5.021159        1.364247       -4.630855
 38        0.653170       -3.852465        0.804507
 39       -2.629897       -2.424186       -5.432765
 40       -2.868720        4.939371       -2.285656
 41        5.850297       -3.851143        0.006626
 42       -0.088473       -5.106380       -1.349816
 43       -6.162650       -5.464294       -2.147523
 44       -0.289410        4.598682       -0.236560
 45        0.547246        3.267496        4.325246
 46       -6.168233       -5.703049        2.208733
 47       -1.002538        4.198462        2.529911
 48        2.877956        0.733969       -3.881880
 49       -5.880029        0.749073        1.793606
 50       -5.685271       -5.857359       -5.355908
 51       -4.079247       -3.334210        0.629880
 52        4.549438        0.621784       -6.207234
 53        4.375484        1.366740        3.630435
 54       -0.352889       -2.751042        3.152998
 55       -1.988995       -6.048925        3.874499
 56       -2.902747        2.491113        2.816381
 57        2.952471       -5.021593        3.242947
 58        3.676883       -2.322700        2.799282
 59        6.152025       -1.696825       -2.600647


       *******************************************************************
       *********** Output from DALTON general input processing ***********
       *******************************************************************

 --------------------------------------------------------------------------------
   Overall default print level:    0
   Print level for DALTON.STAT:    1

    HERMIT 1- and 2-electron integral sections will be executed
    "Old" integral transformation used (limited to max 255 basis functions)
    Wave function sections will be executed (SIRIUS module)
    Environment is modeled using polarizable embedding scheme (PE library)
 --------------------------------------------------------------------------------


   ****************************************************************************
   *************** Output of molecule and basis set information ***************
   ****************************************************************************


    The two title cards from your ".mol" input:
    ------------------------------------------------------------------------
 1:                                                                         
 2:                                                                         
    ------------------------------------------------------------------------

  Coordinates are entered in Angstrom and converted to atomic units.
          - Conversion factor : 1 bohr = 0.52917721 A

  Atomic type no.    1
  --------------------
  Nuclear charge:   7.00000
  Number of symmetry independent centers:    1
  Number of basis sets to read;    2
  The basis set is "6-311++G**" from the basis set library.
  Basis set file used for this atomic type with Z =   7 :
     "/gpfs/gss1/work/sdujk/reinholdt/Programs/dalton-private/pe-cvs/basis/6-311++G**"

  Info about the basis set file: your basis has no documentation.
  Basis set: 6-311++G**                                                                      

  Atomic type no.    2
  --------------------
  Nuclear charge:   1.00000
  Number of symmetry independent centers:    3
  Number of basis sets to read;    2
  The basis set is "6-311++G**" from the basis set library.
  Basis set file used for this atomic type with Z =   1 :
     "/gpfs/gss1/work/sdujk/reinholdt/Programs/dalton-private/pe-cvs/basis/6-311++G**"

  Info about the basis set file: your basis has no documentation.
  Basis set: 6-311++G**                                                                      

  Atomic type no.    3
  --------------------
  Nuclear charge:   8.00000
  Number of symmetry independent centers:    4
  Number of basis sets to read;    2
  The basis set is "6-311G**" from the basis set library.
  Basis set file used for this atomic type with Z =   8 :
     "/gpfs/gss1/work/sdujk/reinholdt/Programs/dalton-private/pe-cvs/basis/6-311G**"

  Info about the basis set file: your basis has no documentation.
  Basis set: 6-311G**                                                                        

  Atomic type no.    4
  --------------------
  Nuclear charge:   1.00000
  Number of symmetry independent centers:    8
  Number of basis sets to read;    2
  The basis set is "6-311G**" from the basis set library.
  Basis set file used for this atomic type with Z =   1 :
     "/gpfs/gss1/work/sdujk/reinholdt/Programs/dalton-private/pe-cvs/basis/6-311G**"

  Info about the basis set file: your basis has no documentation.
  Basis set: 6-311G**                                                                        

  Atomic type no.    5
  --------------------
  Nuclear charge:   8.00000
  Number of symmetry independent centers:   59
  Number of basis sets to read;    2
     "/work/sdujk/reinholdt/ECP-Sonia/mixed-basis/ecp_data/pe_ecp"
     Pseudo potential parameters for ECP type  1.
     -----------------------------------------------
     Atomic charge  :  8.0
     Effectiv charge:  0.0
     Core electrons :    8
     Max angular mom:    2
  This is a point charge without basis functions.


                         SYMGRP: Point group information
                         -------------------------------

@    Point group: C1 


                                 Isotopic Masses
                                 ---------------

                           N          14.003074
                           H           1.007825
                           H           1.007825
                           H           1.007825
                           O          15.994915
                           O          15.994915
                           O          15.994915
                           O          15.994915
                           H           1.007825
                           H           1.007825
                           H           1.007825
                           H           1.007825
                           H           1.007825
                           H           1.007825
                           H           1.007825
                           H           1.007825

                       Total mass:    89.068809 amu
                       Natural abundance:  98.514 %

 Center-of-mass coordinates (a.u.):    0.385135    1.030312   -0.269382


  Atoms and basis sets
  --------------------

  Number of atom types :    5
  Total number of atoms:   75

  label    atoms   charge   prim   cont     basis
  ----------------------------------------------------------------------
  N           1    7.0000    35    22      [12s6p1d|5s4p1d]                                   
  H           3    1.0000     9     7      [6s1p|4s1p]                                        
  O           4    8.0000    31    18      [11s5p1d|4s3p1d]                                   
  H           8    1.0000     8     6      [5s1p|3s1p]                                        
   5         59    0.0000     0     0      Point Charge                                       
  ----------------------------------------------------------------------
  total:     75   50.0000   250   163
  ----------------------------------------------------------------------
  Spherical harmonic basis used.

  Threshold for neglecting AO integrals:  1.00D-12


  Cartesian Coordinates (a.u.)
  ----------------------------

  Total number of coordinates:  225
  N       :     1  x   0.0000000000    2  y   0.0000000000    3  z   0.0000000000
  H       :     4  x  -0.2150848481    5  y  -0.0169546228    6  z   1.8714902679
  H       :     7  x  -0.8250903310    8  y  -1.5598971066    9  z  -0.6770397377
  H       :    10  x   1.7802542906   11  y  -0.0187612010   12  z  -0.4199443881
  O       :    13  x  -1.4909107647   14  y  -2.7596237521   15  z  -5.4749863389
  O       :    16  x  -1.2578168266   17  y   4.1317897963   18  z  -2.3054337471
  O       :    19  x  -0.3228370317   20  y   1.8506031250   21  z   6.1219586443
  O       :    22  x   5.0276069069   23  y   2.0058271187   24  z   0.1734466227
  H       :    25  x  -2.2097191189   26  y  -2.0879300496   27  z  -7.0677382239
  H       :    28  x  -2.9423262533   29  y  -3.5827903419   30  z  -4.6473959003
  H       :    31  x  -0.5998519844   32  y   3.7196934407   33  z  -3.9960545482
  H       :    34  x  -0.8500951871   35  y   2.4864203770   36  z  -1.2350021631
  H       :    37  x  -1.7614723026   38  y   0.7186571762   39  z   6.6522460305
  H       :    40  x   0.3319549603   41  y   2.9645210867   42  z   7.4857267455
  H       :    43  x   5.4479424683   44  y   3.8003923052   45  z  -0.2271167343
  H       :    46  x   4.8368239368   47  y   1.6511406428   48  z   2.0218916804
    1     :    49  x   8.6639804331   50  y   8.0630928788   51  z  -8.6857141732
    2     :    52  x  -7.2281287288   53  y  -8.0792859419   54  z   5.7198457118
    3     :    55  x  -7.9343137125   56  y  -3.6734518425   57  z   8.9569068797
    4     :    58  x -11.0634601803   59  y   6.7325763984   60  z  11.1871333065
    5     :    61  x  -7.3178472560   62  y  -1.4505915681   63  z   1.6592929213
    6     :    64  x   9.0843424507   65  y   4.6968235768   66  z  -4.8124124547
    7     :    67  x   0.0720798236   68  y  -6.4388600462   69  z  -9.7376321104
    8     :    70  x   8.5191385948   71  y  -7.4153004323   72  z  11.4151495505
    9     :    73  x  -9.3536662180   74  y   5.4825055592   75  z  -4.3336446718
   10     :    76  x  -7.1581427217   77  y  -1.0193031540   78  z  -6.1393479041
   11     :    79  x  -4.5057930526   80  y  -6.4987719233   81  z  -2.9549231677
   12     :    82  x  -5.8070943670   83  y   3.9090458882   84  z  11.1677881802
   13     :    85  x   9.7878137877   86  y  -0.2014504741   87  z  -1.2284221367
   14     :    88  x  11.4005892107   89  y   9.9474899761   90  z  -0.2941944529
   15     :    91  x   5.8422111476   92  y   6.9060286902   93  z   5.6578910408
   16     :    94  x  -2.6286052604   95  y  -0.0266715945   96  z -10.1173272218
   17     :    97  x  -6.9686561037   98  y  10.3683338738   99  z  10.6220787390
   18     :   100  x  -8.4148578380  101  y   5.3630748681  102  z   1.3067852997
   19     :   103  x  10.1827778862  104  y  -2.9929954799  105  z   9.0207267104
   20     :   106  x   0.9411516404  107  y  -8.9221378087  108  z   9.5444435190
   21     :   109  x   9.0795803408  110  y   9.8525520253  111  z   8.2406874503
   22     :   112  x   0.8723051382  113  y   7.8560450359  114  z -10.5365610729
   23     :   115  x   8.1164455164  116  y  -7.0440032638  117  z  -6.3399366630
   24     :   118  x   3.7409925439  119  y  10.3488980406  120  z   1.7498788328
   25     :   121  x   0.5035156363  122  y  -2.5604674055  123  z  10.3314048459
   26     :   124  x  -4.0836716999  125  y   7.5627236365  126  z  -9.0922679620
   27     :   127  x  -6.3707864420  128  y   1.7304600072  129  z  -2.1114136762
   28     :   130  x   6.2706328471  131  y  -4.5624697185  132  z  -0.0745326881
   29     :   133  x   4.6731528674  134  y  11.2097004159  135  z  -9.4774092641
   30     :   136  x   4.2434915075  137  y  -0.1400457134  138  z   5.1826249204
   31     :   139  x   0.7445766597  140  y   3.0545967721  141  z  -7.3634539063
   32     :   142  x  -6.8318229248  143  y  -8.7335469209  144  z  -6.8500323257
   33     :   145  x   7.1172150333  146  y   7.3920624701  147  z  -0.9155685281
   34     :   148  x   3.9565441543  149  y  -2.5752337255  150  z  -4.8227889409
   35     :   151  x   2.9595718939  152  y  -8.8791314216  153  z  -6.6708806199
   36     :   154  x  -4.2664308929  155  y  -1.3130667493  156  z   6.2053824938
   37     :   157  x  -9.4886153400  158  y   2.5780531968  159  z  -8.7510476746
   38     :   160  x   1.2343124131  161  y  -7.2801037561  162  z   1.5202978956
   39     :   163  x  -4.9697850669  164  y  -4.5810476160  165  z -10.2664379515
   40     :   166  x  -5.4210951293  167  y   9.3340584197  168  z  -4.3192638559
   41     :   169  x  11.0554590799  170  y  -7.2776055382  171  z   0.0125213253
   42     :   172  x  -0.1671897395  173  y  -9.6496596901  174  z  -2.5507825591
   43     :   175  x -11.6457207042  176  y -10.3260191264  177  z  -4.0582303171
   44     :   178  x  -0.5469056378  179  y   8.6902495159  180  z  -0.4470336121
   45     :   181  x   1.0341450630  182  y   6.1746725545  183  z   8.1735303632
   46     :   184  x -11.6562710451  185  y -10.7772006874  186  z   4.1739004532
   47     :   187  x  -1.8945222499  188  y   7.9339433262  189  z   4.7808389106
   48     :   190  x   5.4385486398  191  y   1.3870003942  192  z  -7.3356900501
   49     :   193  x -11.1116444170  194  y   1.4155428176  195  z   3.3894241161
   50     :   196  x -10.7436051364  197  y -11.0688043258  198  z -10.1211992707
   51     :   199  x  -7.7086596262  200  y  -6.3007437432  201  z   1.1903006916
   52     :   202  x   8.5971918426  203  y   1.1750014689  204  z -11.7299722537
   53     :   205  x   8.2684664243  206  y   2.5827642841  207  z   6.8605278646
   54     :   208  x  -0.6668635625  209  y  -5.1987159384  210  z   5.9583026927
   55     :   211  x  -3.7586558140  212  y -11.4308116006  213  z   7.3217419816
   56     :   214  x  -5.4853968401  215  y   4.7075213164  216  z   5.3221887536
   57     :   217  x   5.5793615820  218  y  -9.4894354812  219  z   6.1282816679
   58     :   220  x   6.9483018636  221  y  -4.3892668705  222  z   5.2898763266
   59     :   223  x  11.6256423641  224  y  -3.2065345320  225  z  -4.9145105778

  Max    interatomic separation is   18.0838 Angstrom (   34.1734 Bohr)
  between atoms   66 and   37, " 50   " and " 21   ".

  Min HX interatomic separation is    0.9680 Angstrom (    1.8292 Bohr)

  Min YX interatomic separation is    2.5479 Angstrom (    4.8148 Bohr)


  Bond distances (Angstrom):
  --------------------------

                  atom 1     atom 2       distance
                  ------     ------       --------
  bond distance:  H          N            0.996909
  bond distance:  H          N            1.000192
  bond distance:  H          N            0.967976
  bond distance:  H          O            0.990667
  bond distance:  H          O            0.985622
  bond distance:  H          O            0.984460
  bond distance:  H          O            1.060905
  bond distance:  H          O            1.008520
  bond distance:  H          O            0.994153
  bond distance:  H          O            0.998113
  bond distance:  H          O            1.001103


  Bond angles (degrees):
  ----------------------

                  atom 1     atom 2     atom 3         angle
                  ------     ------     ------         -----
  bond angle:     H          N          H            107.372
  bond angle:     H          N          H            109.821
  bond angle:     H          N          H            109.521
  bond angle:     H          O          H            103.733
  bond angle:     H          O          H            103.385
  bond angle:     H          O          H            114.411
  bond angle:     H          O          H            114.102




 Principal moments of inertia (u*A**2) and principal axes
 --------------------------------------------------------

   IA     235.130813          0.228877    0.332333    0.914970
   IB     523.144408          0.880921    0.329258   -0.339952
   IC     570.294776         -0.414239    0.883823   -0.217400


 Rotational constants
 --------------------

               A                   B                   C

           2149.3525            966.0411            886.1716 MHz
            0.071695            0.032224            0.029560 cm-1


@  Nuclear repulsion energy :  185.617522540833 Hartree

  Reading potential input file for polarizable embedding calculation
 
    .------------------------------------------------.
    | Information from polarizable embedding library |
    `------------------------------------------------´

      Number of classical sites:    177

      Multipole moments upto 0th order.

      Dipole-dipole polarizabilities.

      Iterative solver for induced moments will be used
      with convergence threshold: 1.0E-08
      Total charge of classical region:    0.0000
 

  Number of floating/multiple basis set orbitals :   59


                     .---------------------------------------.
                     | Starting in Integral Section (HERMIT) |
                     `---------------------------------------'



 ***************************************************************************************
 ****************** Output from **INTEGRALS input processing (HERMIT) ******************
 ***************************************************************************************



    *************************************************************************
    ****************** Output from HERMIT input processing ******************
    *************************************************************************


 Default print level:        1

 * Nuclear model: Point charge

 Calculation of one- and two-electron Hamiltonian integrals.

 The following one-electron property integrals are calculated as requested:
          - overlap integrals
          - dipole length integrals

 Center of mass  (bohr):      0.385134694563      1.030311607711     -0.269381534666
 Operator center (bohr):      0.000000000000      0.000000000000      0.000000000000
 Gauge origin    (bohr):      0.000000000000      0.000000000000      0.000000000000
 Dipole origin   (bohr):      0.000000000000      0.000000000000      0.000000000000


     ************************************************************************
     ************************** Output from HERINT **************************
     ************************************************************************



                      Nuclear contribution to dipole moments
                      --------------------------------------

                 au               Debye          C m (/(10**-30)

      x     18.64167390        47.38240581       158.05069322
      y     49.90326201       126.84143196       423.09747484
      z    -12.11905552       -30.80356463      -102.74963165


  Time used in ONEDRV     is       4.12 seconds

 Threshold for neglecting two-electron integrals:  1.00D-12
 HERMIT - Number of two-electron integrals written:    39116170 ( 43.8% )
 HERMIT - Megabytes written:                            447.900

  Time used in TWOINT     is       7.00 seconds
  Total CPU  time used in HERMIT:  11.51 seconds
  Total wall time used in HERMIT:  10.38 seconds


                        .----------------------------------.
                        | End of Integral Section (HERMIT) |
                        `----------------------------------'



                   .--------------------------------------------.
                   | Starting in Wave Function Section (SIRIUS) |
                   `--------------------------------------------'

 INPUT: SIMPLE =  F
NCCEXCI for singlet:   15
 CCSD_INPUT: core-val requested
 Requested number of core orbs per sym
                     1
 Indices of requested core orbs
                     1

 *** Output from Huckel module :

     Using EWMO model:          T
     Using EHT  model:          F
     Number of Huckel orbitals each symmetry:   36

 EWMO - Energy Weighted Maximum Overlap - is a Huckel type method,
        which normally is better than Extended Huckel Theory.
 Reference: Linderberg and Ohrn, Propagators in Quantum Chemistry (Wiley, 1973)

 Huckel EWMO eigenvalues for symmetry :  1
          -20.684516     -20.684419     -20.684305     -20.684062     -15.675136
           -1.763698      -1.595028      -1.577440      -1.570817      -1.451688
           -0.814194      -0.806779      -0.800425      -0.778485      -0.754556
           -0.721361      -0.698201      -0.688679      -0.664139      -0.647023
           -0.616183      -0.610691      -0.608511      -0.585827      -0.501427
           -0.260081      -0.246580      -0.242815      -0.221036      -0.179724
           -0.179344      -0.178466      -0.174385      -0.151105      -0.142363
           -0.132313

 **********************************************************************
 *SIRIUS* a direct, restricted step, second order MCSCF program       *
 **********************************************************************

 
     Date and time (Linux)  : Thu Dec 20 05:47:50 2018
     Host name              : s71p32.deic.sdu.dk                      

 Title lines from ".mol" input file:
                                                                             
                                                                             

 Print level on unit LUPRI =   2 is   0
 Print level on unit LUW4  =   2 is  11

@    (Integral direct) CC calculation.

@    This is a combination run starting with
@              a restricted, closed shell Hartree-Fock calculation


 Initial molecular orbitals are obtained according to
 ".MOSTART EWMO  " input option

@    QM part is embedded in an environment :

@         Model: PE

     Wave function specification
     ============================

     For the specification of the Coupled Cluster: see later.


     Wave function environment is modeled using the
     polarizable embedding model (PE library).

@    Wave function type        --- PE-CC ---
@    Number of closed shell electrons          50
@    Number of electrons in active shells       0
@    Total charge of the molecule               0

@    Spin multiplicity and 2 M_S                1         0
@    Total number of symmetries                 1 (point group: C1 )
@    Reference state symmetry                   1 (irrep name : A  )

     Orbital specifications
     ======================
@    Abelian symmetry species          All |    1
@                                          |  A  
                                       --- |  ---
@    Occupied SCF orbitals              25 |   25
@    Secondary orbitals                138 |  138
@    Total number of orbitals          163 |  163
@    Number of basis functions         163 |  163

     Optimization information
     ========================
@    Number of configurations                 1
@    Number of orbital rotations           3450
     ------------------------------------------
@    Total number of variables             3451

     Maximum number of Fock   iterations      0
     Maximum number of DIIS   iterations     60
     Maximum number of QC-SCF iterations     60
     Threshold for SCF convergence     1.00D-07


 Changes of defaults for CC:
 ---------------------------


 -Implicit frozen core calculation
 -Excitation energies calculated
 -One-photon absorption strengths will be calculated
 -Oscillator strengths calculated
  
* Read MO coefficients from SIRIUS.RST with label "NEWORB  " and header info: 20Dec18  REORTHO 


 ***********************************************
 ***** DIIS acceleration of SCF iterations *****
 ***********************************************

 C1-DIIS algorithm; max error vectors =    8
 -----------------------------------------------------------------------------

 *** DIIS iteration number    1
 RDSUPM called. NFMAT, ISYMDM(1:NFMAT)                     1
                     1

Calculating AOSUPINT
     (Precalculated AO two-electron integrals are transformed to P-supermatrix elements.
      Threshold for discarding integrals :  1.00D-12 )
  CPU  time used in FORMSUP    is   4.02 seconds
  WALL time used in FORMSUP    is   7.10 seconds

 ITDIIS, energy, error norm, change in energy, scr.thr., difden:
@ DIIS iter.   1    -359.925497080        3.86338D+00   -3.60D+02  -20    F

 (DIIS_RED) Control Parameters C2DIIS =         F NEVC =    1


 (DIIS_RED) B matrix:

               Column   1
       1      14.92570868
    ==== End of matrix output ====

 DIIS C vector; C2DIIS = F, LAMBDA = -1.49D+01
    1.000000
* Read MO coefficients from SIRIUS.RST with label "NEWORB  " and header info: 20Dec18  DIIS   1
      Virial theorem: -V/T =      1.997807
@    MULPOP   N      -0.59; H       0.17; H       0.21; H       0.25; O      -0.62; O      -0.92; O      -0.59; O      -0.59; H       0.32; H       0.33; 
@             H       0.32; H       0.42; H       0.33; H       0.31; H       0.31; H       0.34; 
   1  Level shift: doubly occupied orbital energies shifted by -2.00D-01

 DIIS Fock eigenvalues in symmetry 1
      -20.73007      -20.71425      -20.68251      -20.43842      -16.07082
       -1.54113       -1.53817       -1.50921       -1.50133       -1.40885
       -1.00624       -0.99035       -0.93586       -0.93511       -0.88887
       -0.88793       -0.79168       -0.77843       -0.75946       -0.75789
       -0.74645       -0.74127       -0.70763       -0.65934       -0.62050
        0.08055        0.12347        0.14068        0.18204        0.19837
        0.21180        0.24117        0.24660        0.25165        0.27378
        0.28495        0.30356        0.31001        0.32329        0.32521
        0.34353        0.40186        0.45351        0.53261        0.54407
        0.55744        0.56833        0.57173        0.59685        0.62142
        0.65125        0.65528        0.68635        0.77413        0.90012
        0.92099        0.94757        0.96426        1.00738        1.01681
        1.04137        1.06739        1.08461        1.09703        1.12353
        1.12728        1.15710        1.16654        1.20071        1.22555
        1.24824        1.29363        1.36726        1.39884        1.43034
        1.43816        1.46016        1.47926        1.50738        1.52294
        1.56882        1.60112        1.65008        1.67971        1.69532
        1.71475        1.73513        1.75926        1.76902        1.78362
        1.82524        1.85771        1.89297        1.90267        2.00585
        2.05345        2.16333        2.18994        2.21218        2.21639
        2.23429        2.27602        2.28635        2.35112        2.36943
        2.41358        2.59314        2.61526        2.63511        2.64938
        2.69054        2.71221        2.73477        2.78724        2.79166
        2.80645        2.89283        2.90311        2.91294        3.11083
        3.15900        3.34942        3.35406        3.37187        3.38210
        3.47043        3.48480        3.51046        3.51493        3.54532
        3.55864        3.56950        3.60674        3.67116        3.74993
        3.99314        4.00470        4.01986        4.03363        4.13271
        4.14493        4.23754        4.24860        4.64730        5.05772
        5.15752        5.29555        5.38272        5.39748        5.51962
        5.70227        5.73594        5.80030        5.93843        6.09089
        6.10255        6.10440        6.30566       36.80382       51.53205
       51.55595       51.58864       51.87945
 Time used in FCKEIG, thr_jaco:   1.14D-01  4.40D-02  1.64D-04
 CPU and wall times used in FCKEIG, THR_FCKEIG:   1.14D-01  4.40D-02  3.86D-02
 -----------------------------------------------------------------------------

 *** DIIS iteration number    2
 RDSUPM called. NFMAT, ISYMDM(1:NFMAT)                     1
                     1

 ITDIIS, energy, error norm, change in energy, scr.thr., difden:
@ DIIS iter.   2    -360.730083790        1.04633D+00   -8.05D-01  -20    F

 (DIIS_RED) Control Parameters C2DIIS =         F NEVC =    2


 (DIIS_RED) B matrix:

               Column   1     Column   2
       1      14.92570868
       2       0.62671002     1.09481339
    ==== End of matrix output ====

 DIIS C vector; C2DIIS = F, LAMBDA = -1.08D+00
    0.031699    0.968301
* Read MO coefficients from SIRIUS.RST with label "NEWORB  " and header info: 20Dec18  DIIS   2
      Virial theorem: -V/T =      2.004388
@    MULPOP   N      -1.00; H       0.27; H       0.30; H       0.36; O      -0.54; O      -0.72; O      -0.62; O      -0.54; H       0.28; H       0.29; 
@             H       0.27; H       0.41; H       0.35; H       0.30; H       0.30; H       0.29; 
   2  Level shift: doubly occupied orbital energies shifted by -1.00D-01

 DIIS Fock eigenvalues in symmetry 1
      -20.73873      -20.69155      -20.67571      -20.64072      -15.50331
       -1.43903       -1.43245       -1.42373       -1.40100       -1.22572
       -0.82101       -0.81245       -0.78399       -0.76426       -0.73859
       -0.72038       -0.70017       -0.67784       -0.67651       -0.65608
       -0.63504       -0.62777       -0.62610       -0.58732       -0.51084
        0.11016        0.14336        0.15747        0.20696        0.21984
        0.23345        0.26338        0.26902        0.28593        0.29015
        0.30215        0.32679        0.33962        0.35566        0.36910
        0.38091        0.44025        0.46957        0.56758        0.57791
        0.58894        0.59997        0.61608        0.63500        0.65540
        0.67917        0.71800        0.72726        0.85727        0.95973
        0.97933        0.99642        1.01257        1.03234        1.04035
        1.06784        1.09047        1.10877        1.11964        1.15217
        1.15480        1.17496        1.17955        1.20163        1.29930
        1.32818        1.36356        1.40837        1.43333        1.47620
        1.48766        1.51554        1.52058        1.54080        1.57541
        1.59775        1.64514        1.68698        1.70735        1.74199
        1.75353        1.77512        1.79240        1.82259        1.83955
        1.88574        1.92511        1.96057        1.97821        2.10224
        2.12964        2.24740        2.26174        2.26213        2.30872
        2.32844        2.33678        2.33992        2.38110        2.41683
        2.50988        2.65777        2.68096        2.69349        2.71602
        2.75017        2.77228        2.80002        2.85640        2.86989
        2.89851        2.96317        3.07601        3.09148        3.23515
        3.30813        3.37832        3.39872        3.43505        3.48657
        3.49101        3.51110        3.51461        3.53425        3.57233
        3.58131        3.59949        3.61921        3.64809        3.69547
        3.95295        4.01299        4.04426        4.04668        4.15214
        4.16573        4.17924        4.25674        4.79837        5.29351
        5.30198        5.33987        5.37991        5.38748        5.43262
        5.70493        5.72192        5.74501        5.80995        6.10539
        6.10990        6.11607        6.14235       37.26186       51.48047
       51.48522       51.49074       51.53341
 Time used in FCKEIG, thr_jaco:   1.01D-01  3.00D-02  4.45D-05
 CPU and wall times used in FCKEIG, THR_FCKEIG:   1.01D-01  3.00D-02  1.05D-02
 -----------------------------------------------------------------------------

 *** DIIS iteration number    3
 RDSUPM called. NFMAT, ISYMDM(1:NFMAT)                     1
                     1

 ITDIIS, energy, error norm, change in energy, scr.thr., difden:
@ DIIS iter.   3    -360.796564143        4.03987D-01   -6.65D-02  -20    F

 (DIIS_RED) Control Parameters C2DIIS =         F NEVC =    3


 (DIIS_RED) B matrix:

               Column   1     Column   2     Column   3
       1      14.92570868
       2       0.62671002     1.09481339
       3       0.83210527    -0.01507891     0.16320576
    ==== End of matrix output ====

 DIIS C vector; C2DIIS = F, LAMBDA = -1.06D-01
   -0.049549    0.137358    0.912191
* Read MO coefficients from SIRIUS.RST with label "NEWORB  " and header info: 20Dec18  DIIS   3
      Virial theorem: -V/T =      2.001802
@    MULPOP   N      -0.93; H       0.25; H       0.26; H       0.34; O      -0.58; O      -0.84; O      -0.68; O      -0.59; H       0.30; H       0.31; 
@             H       0.34; H       0.48; H       0.38; H       0.32; H       0.32; H       0.31; 
   3  Level shift: doubly occupied orbital energies shifted by -5.00D-02

 DIIS Fock eigenvalues in symmetry 1
      -20.60263      -20.59944      -20.56196      -20.51837      -15.59533
       -1.37213       -1.37171       -1.33961       -1.31854       -1.21130
       -0.75443       -0.75090       -0.71110       -0.70225       -0.69559
       -0.68836       -0.61482       -0.60941       -0.60336       -0.59190
       -0.56528       -0.55482       -0.51771       -0.51325       -0.47235
        0.11358        0.14637        0.16066        0.20989        0.22391
        0.23886        0.26890        0.27306        0.28775        0.29523
        0.30893        0.33140        0.34203        0.35916        0.37130
        0.38217        0.44441        0.47763        0.57951        0.59004
        0.59800        0.61085        0.62106        0.64135        0.66468
        0.68902        0.71718        0.73121        0.85785        0.97525
        0.99583        1.00597        1.03842        1.04053        1.04714
        1.05988        1.10104        1.11982        1.13014        1.15972
        1.16846        1.18705        1.19705        1.21836        1.29805
        1.33428        1.36309        1.41614        1.44493        1.48041
        1.49889        1.52288        1.53393        1.55596        1.58554
        1.61448        1.65841        1.70061        1.72356        1.75914
        1.76405        1.78944        1.80262        1.83447        1.84921
        1.89345        1.93301        1.96799        1.98364        2.10637
        2.13571        2.26178        2.27181        2.27461        2.30240
        2.33670        2.34578        2.35185        2.39658        2.43090
        2.51551        2.66939        2.69332        2.70376        2.72659
        2.76231        2.78091        2.80848        2.86638        2.87808
        2.90453        2.97322        3.05310        3.06774        3.23905
        3.28967        3.39626        3.42173        3.49621        3.50385
        3.52665        3.52926        3.54763        3.55430        3.55861
        3.58374        3.60869        3.61451        3.71151        3.71469
        4.00323        4.03117        4.06347        4.06995        4.17602
        4.18717        4.23464        4.27670        4.76882        5.27955
        5.31956        5.37546        5.39545        5.40592        5.42803
        5.72419        5.75061        5.80677        5.85928        6.13053
        6.13673        6.13907        6.23065       37.12446       51.51211
       51.52362       51.56186       51.65532
 Time used in FCKEIG, thr_jaco:   9.67D-02  2.80D-02  1.72D-05
 CPU and wall times used in FCKEIG, THR_FCKEIG:   9.71D-02  2.80D-02  4.04D-03
 -----------------------------------------------------------------------------

 *** DIIS iteration number    4
 RDSUPM called. NFMAT, ISYMDM(1:NFMAT)                     1
                     1

 ITDIIS, energy, error norm, change in energy, scr.thr., difden:
@ DIIS iter.   4    -360.807109364        1.07052D-01   -1.05D-02  -20    F

 (DIIS_RED) Control Parameters C2DIIS =         F NEVC =    4


 (DIIS_RED) B matrix:

               Column   1     Column   2     Column   3     Column   4
       1      14.92570868
       2       0.62671002     1.09481339
       3       0.83210527    -0.01507891     0.16320576
       4       0.02679019     0.08961667    -0.00292602     0.01146019
    ==== End of matrix output ====

 DIIS C vector; C2DIIS = F, LAMBDA = -4.60D-03
   -0.000558   -0.079876    0.042265    1.038169
* Read MO coefficients from SIRIUS.RST with label "NEWORB  " and header info: 20Dec18  DIIS   4
      Virial theorem: -V/T =      2.002782
@    MULPOP   N      -1.01; H       0.26; H       0.28; H       0.36; O      -0.59; O      -0.82; O      -0.70; O      -0.60; H       0.31; H       0.32; 
@             H       0.34; H       0.49; H       0.40; H       0.33; H       0.33; H       0.32; 
   4  Level shift: doubly occupied orbital energies shifted by -2.50D-02

 DIIS Fock eigenvalues in symmetry 1
      -20.58159      -20.58149      -20.54143      -20.53337      -15.55283
       -1.34957       -1.34926       -1.31734       -1.30612       -1.18001
       -0.73116       -0.72828       -0.68381       -0.67778       -0.67344
       -0.65879       -0.58922       -0.58779       -0.58212       -0.56674
       -0.53830       -0.52818       -0.49726       -0.49073       -0.44351
        0.11447        0.14669        0.16144        0.21089        0.22341
        0.23909        0.26968        0.27312        0.28934        0.29534
        0.30814        0.33165        0.34269        0.35972        0.37228
        0.38448        0.44641        0.47829        0.57956        0.58906
        0.59693        0.61039        0.62161        0.64172        0.66323
        0.68842        0.72050        0.73210        0.86100        0.97591
        0.99697        1.00747        1.03837        1.04173        1.04764
        1.06293        1.10166        1.11970        1.13018        1.16044
        1.16793        1.18661        1.19399        1.21515        1.30147
        1.33496        1.36681        1.41727        1.44508        1.48228
        1.49720        1.52369        1.53219        1.55429        1.58383
        1.61209        1.65787        1.69879        1.72150        1.75742
        1.76242        1.78793        1.80279        1.83405        1.84827
        1.89411        1.93401        1.96800        1.98525        2.10999
        2.13805        2.26060        2.27150        2.27235        2.30657
        2.33951        2.34428        2.34970        2.39255        2.42819
        2.51837        2.66763        2.69238        2.70244        2.72621
        2.76051        2.78275        2.80820        2.86471        2.87956
        2.90758        2.97494        3.06046        3.07519        3.24247
        3.29575        3.39572        3.42119        3.48636        3.50331
        3.52725        3.52866        3.54706        3.55124        3.55753
        3.58798        3.60863        3.61517        3.70016        3.71397
        3.99414        4.03012        4.06254        4.06870        4.17542
        4.18661        4.22451        4.27615        4.77312        5.28887
        5.31866        5.37371        5.39447        5.40203        5.41945
        5.72298        5.74838        5.79895        5.84675        6.12825
        6.13348        6.13643        6.21191       37.14186       51.50843
       51.51677       51.55745       51.61621
 Time used in FCKEIG, thr_jaco:   9.36D-02  2.40D-02  4.56D-06
 CPU and wall times used in FCKEIG, THR_FCKEIG:   9.37D-02  2.50D-02  1.07D-03
 -----------------------------------------------------------------------------

 *** DIIS iteration number    5
 RDSUPM called. NFMAT, ISYMDM(1:NFMAT)                     1
                     1

 ITDIIS, energy, error norm, change in energy, scr.thr., difden:
@ DIIS iter.   5    -360.808276130        2.69390D-02   -1.17D-03  -20    F

 (DIIS_RED) Control Parameters C2DIIS =         F NEVC =    5


 (DIIS_RED) B matrix:

               Column   1     Column   2     Column   3     Column   4     Column   5
       1      14.92570868
       2       0.62671002     1.09481339
       3       0.83210527    -0.01507891     0.16320576
       4       0.02679019     0.08961667    -0.00292602     0.01146019
       5       0.01654347     0.00762362     0.00547129     0.00109897     0.00072571
    ==== End of matrix output ====

 DIIS C vector; C2DIIS = F, LAMBDA = -5.00D-04
    0.001463   -0.006760   -0.041114   -0.019675    1.066087
* Read MO coefficients from SIRIUS.RST with label "NEWORB  " and header info: 20Dec18  DIIS   5
      Virial theorem: -V/T =      2.002405
@    MULPOP   N      -1.02; H       0.26; H       0.28; H       0.36; O      -0.60; O      -0.84; O      -0.71; O      -0.61; H       0.31; H       0.32; 
@             H       0.35; H       0.50; H       0.40; H       0.34; H       0.34; H       0.32; 
   5  Level shift: doubly occupied orbital energies shifted by -1.25D-02

 DIIS Fock eigenvalues in symmetry 1
      -20.56842      -20.56742      -20.52879      -20.51224      -15.53172
       -1.33692       -1.33625       -1.30479       -1.29066       -1.16494
       -0.71859       -0.71630       -0.66964       -0.66515       -0.65905
       -0.64443       -0.57651       -0.57331       -0.56860       -0.55449
       -0.52483       -0.51419       -0.48119       -0.47726       -0.42794
        0.11467        0.14677        0.16158        0.21122        0.22328
        0.23920        0.26991        0.27325        0.28972        0.29538
        0.30825        0.33170        0.34279        0.35991        0.37248
        0.38498        0.44707        0.47897        0.57971        0.58936
        0.59673        0.61065        0.62166        0.64186        0.66318
        0.68891        0.72131        0.73257        0.86208        0.97715
        0.99809        1.00863        1.04003        1.04271        1.04875
        1.06441        1.10227        1.12028        1.13035        1.16070
        1.16850        1.18687        1.19478        1.21583        1.30254
        1.33546        1.36789        1.41782        1.44551        1.48294
        1.49674        1.52407        1.53206        1.55470        1.58356
        1.61251        1.65786        1.69869        1.72212        1.75797
        1.76194        1.78813        1.80293        1.83388        1.84801
        1.89458        1.93425        1.96817        1.98620        2.11093
        2.13877        2.26031        2.27131        2.27182        2.30781
        2.34037        2.34425        2.34951        2.39347        2.42780
        2.51968        2.66724        2.69207        2.70197        2.72668
        2.76038        2.78315        2.80779        2.86416        2.87979
        2.90810        2.97520        3.06262        3.07737        3.24390
        3.29789        3.39586        3.42195        3.48935        3.50373
        3.52837        3.52894        3.54972        3.55163        3.55959
        3.59002        3.60889        3.61627        3.70312        3.71392
        3.99740        4.03004        4.06245        4.06918        4.17578
        4.18694        4.22783        4.27612        4.77741        5.29264
        5.31936        5.37790        5.39726        5.40314        5.42178
        5.72328        5.74933        5.80095        5.84942        6.12826
        6.13417        6.13629        6.21626       37.15026       51.50900
       51.51840       51.55764       51.62466
 Time used in FCKEIG, thr_jaco:   9.27D-02  2.40D-02  1.15D-06
 CPU and wall times used in FCKEIG, THR_FCKEIG:   9.29D-02  2.40D-02  2.69D-04
 -----------------------------------------------------------------------------

 *** DIIS iteration number    6
 RDSUPM called. NFMAT, ISYMDM(1:NFMAT)                     1
                     1

 ITDIIS, energy, error norm, change in energy, scr.thr., difden:
@ DIIS iter.   6    -360.808370849        1.01791D-02   -9.47D-05  -20    F

 (DIIS_RED) Control Parameters C2DIIS =         F NEVC =    6


 (DIIS_RED) B matrix:

               Column   1     Column   2     Column   3     Column   4     Column   5     Column   6
       1      14.92570868
       2       0.62671002     1.09481339
       3       0.83210527    -0.01507891     0.16320576
       4       0.02679019     0.08961667    -0.00292602     0.01146019
       5       0.01654347     0.00762362     0.00547129     0.00109897     0.00072571
       6      -0.00154776    -0.00008638     0.00088798     0.00045805     0.00006686     0.00010361
    ==== End of matrix output ====

 DIIS C vector; C2DIIS = F, LAMBDA = -4.04D-05
    0.000629    0.008318   -0.015022   -0.120892    0.161359    0.965608
* Read MO coefficients from SIRIUS.RST with label "NEWORB  " and header info: 20Dec18  DIIS   6
      Virial theorem: -V/T =      2.002561
@    MULPOP   N      -1.02; H       0.26; H       0.28; H       0.36; O      -0.60; O      -0.84; O      -0.71; O      -0.62; H       0.31; H       0.32; 
@             H       0.35; H       0.50; H       0.41; H       0.34; H       0.34; H       0.33; 

 DIIS Fock eigenvalues in symmetry 1
      -20.55610      -20.55531      -20.51614      -20.50233      -15.52341
       -1.32447       -1.32383       -1.29219       -1.27889       -1.15379
       -0.70640       -0.70411       -0.65805       -0.65292       -0.64760
       -0.63301       -0.56422       -0.56146       -0.55653       -0.54215
       -0.51213       -0.50158       -0.46907       -0.46449       -0.41655
        0.11462        0.14675        0.16158        0.21118        0.22318
        0.23911        0.26985        0.27318        0.28957        0.29530
        0.30811        0.33158        0.34268        0.35975        0.37228
        0.38473        0.44684        0.47871        0.57955        0.58910
        0.59654        0.61039        0.62145        0.64168        0.66299
        0.68860        0.72092        0.73227        0.86164        0.97688
        0.99786        1.00832        1.03980        1.04234        1.04859
        1.06369        1.10201        1.12002        1.13016        1.16049
        1.16821        1.18669        1.19445        1.21554        1.30199
        1.33520        1.36731        1.41760        1.44527        1.48253
        1.49645        1.52372        1.53187        1.55438        1.58333
        1.61213        1.65762        1.69841        1.72173        1.75761
        1.76165        1.78783        1.80264        1.83363        1.84768
        1.89411        1.93390        1.96779        1.98559        2.11043
        2.13832        2.25998        2.27090        2.27161        2.30700
        2.33973        2.34389        2.34912        2.39281        2.42762
        2.51901        2.66696        2.69175        2.70161        2.72617
        2.76000        2.78270        2.80741        2.86385        2.87940
        2.90764        2.97482        3.06137        3.07613        3.24316
        3.29676        3.39576        3.42177        3.48850        3.50358
        3.52796        3.52861        3.54890        3.55144        3.55843
        3.58898        3.60865        3.61580        3.70224        3.71393
        3.99634        4.03003        4.06228        4.06897        4.17563
        4.18678        4.22675        4.27614        4.77537        5.29072
        5.31917        5.37650        5.39606        5.40286        5.42117
        5.72311        5.74908        5.80038        5.84860        6.12805
        6.13390        6.13628        6.21484       37.14616       51.50882
       51.51802       51.55776       51.62212
 Time used in FCKEIG, thr_jaco:   9.17D-02  2.30D-02  4.33D-07
 CPU and wall times used in FCKEIG, THR_FCKEIG:   9.18D-02  2.30D-02  1.02D-04
 -----------------------------------------------------------------------------

 *** DIIS iteration number    7
 RDSUPM called. NFMAT, ISYMDM(1:NFMAT)                     1
                     1

 ITDIIS, energy, error norm, change in energy, scr.thr., difden:
@ DIIS iter.   7    -360.808382051        2.29299D-03   -1.12D-05  -20    F

 (DIIS_RED) Control Parameters C2DIIS =         F NEVC =    7


 (DIIS_RED) B matrix:

               Column   1     Column   2     Column   3     Column   4     Column   5     Column   6
       1      14.92570868
       2       0.62671002     1.09481339
       3       0.83210527    -0.01507891     0.16320576
       4       0.02679019     0.08961667    -0.00292602     0.01146019
       5       0.01654347     0.00762362     0.00547129     0.00109897     0.00072571
       6      -0.00154776    -0.00008638     0.00088798     0.00045805     0.00006686     0.00010361
       7       0.00038706    -0.00007322     0.00008016     0.00000097     0.00004092     0.00000337

               Column   7
       7       0.00000526
    ==== End of matrix output ====

 DIIS C vector; C2DIIS = F, LAMBDA = -1.41D-06
   -0.000231   -0.001044    0.005728    0.026661   -0.122739   -0.117744    1.209369
* Read MO coefficients from SIRIUS.RST with label "NEWORB  " and header info: 20Dec18  DIIS   7
      Virial theorem: -V/T =      2.002533
@    MULPOP   N      -1.02; H       0.26; H       0.28; H       0.36; O      -0.60; O      -0.84; O      -0.71; O      -0.62; H       0.31; H       0.32; 
@             H       0.35; H       0.50; H       0.41; H       0.34; H       0.34; H       0.33; 

 DIIS Fock eigenvalues in symmetry 1
      -20.55616      -20.55531      -20.51628      -20.50180      -15.52295
       -1.32444       -1.32378       -1.29218       -1.27861       -1.15363
       -0.70642       -0.70416       -0.65793       -0.65292       -0.64747
       -0.63293       -0.56427       -0.56135       -0.55650       -0.54225
       -0.51207       -0.50148       -0.46875       -0.46443       -0.41631
        0.11464        0.14676        0.16160        0.21120        0.22318
        0.23912        0.26987        0.27320        0.28961        0.29531
        0.30814        0.33160        0.34270        0.35977        0.37229
        0.38475        0.44690        0.47880        0.57957        0.58915
        0.59653        0.61044        0.62147        0.64171        0.66301
        0.68867        0.72100        0.73232        0.86172        0.97697
        0.99795        1.00840        1.03993        1.04239        1.04868
        1.06380        1.10206        1.12007        1.13015        1.16052
        1.16825        1.18672        1.19452        1.21560        1.30208
        1.33525        1.36739        1.41766        1.44531        1.48260
        1.49641        1.52375        1.53186        1.55447        1.58331
        1.61222        1.65762        1.69841        1.72181        1.75770
        1.76163        1.78787        1.80267        1.83362        1.84768
        1.89419        1.93392        1.96782        1.98569        2.11050
        2.13840        2.25996        2.27089        2.27158        2.30708
        2.33978        2.34388        2.34910        2.39290        2.42758
        2.51913        2.66694        2.69174        2.70158        2.72623
        2.76003        2.78273        2.80738        2.86382        2.87940
        2.90765        2.97497        3.06151        3.07627        3.24328
        3.29689        3.39576        3.42180        3.48875        3.50359
        3.52802        3.52863        3.54913        3.55146        3.55856
        3.58911        3.60867        3.61586        3.70252        3.71392
        3.99661        4.03001        4.06227        4.06900        4.17565
        4.18680        4.22703        4.27613        4.77568        5.29092
        5.31918        5.37678        5.39620        5.40289        5.42130
        5.72310        5.74910        5.80049        5.84878        6.12803
        6.13392        6.13623        6.21518       37.14661       51.50876
       51.51802       51.55764       51.62265
 Time used in FCKEIG, thr_jaco:   1.16D-01  4.20D-02  9.76D-08
 CPU and wall times used in FCKEIG, THR_FCKEIG:   1.16D-01  4.20D-02  2.29D-05
 -----------------------------------------------------------------------------

 *** DIIS iteration number    8
 RDSUPM called. NFMAT, ISYMDM(1:NFMAT)                     1
                     1

 ITDIIS, energy, error norm, change in energy, scr.thr., difden:
@ DIIS iter.   8    -360.808382725        3.93593D-04   -6.73D-07  -20    F

 (DIIS_RED) Control Parameters C2DIIS =         F NEVC =    8


 (DIIS_RED) B matrix:

               Column   1     Column   2     Column   3     Column   4     Column   5     Column   6
       1      14.92570868
       2       0.62671002     1.09481339
       3       0.83210527    -0.01507891     0.16320576
       4       0.02679019     0.08961667    -0.00292602     0.01146019
       5       0.01654347     0.00762362     0.00547129     0.00109897     0.00072571
       6      -0.00154776    -0.00008638     0.00088798     0.00045805     0.00006686     0.00010361
       7       0.00038706    -0.00007322     0.00008016     0.00000097     0.00004092     0.00000337
       8       0.00011824    -0.00000616     0.00000520     0.00000258     0.00000096     0.00000169

               Column   7     Column   8
       7       0.00000526
       8       0.00000042     0.00000015
    ==== End of matrix output ====

 DIIS C vector; C2DIIS = F, LAMBDA = -9.41D-08
   -0.000004   -0.000101   -0.000218    0.000220    0.011171   -0.019617   -0.147118    1.155667
* Read MO coefficients from SIRIUS.RST with label "NEWORB  " and header info: 20Dec18  DIIS   8
      Virial theorem: -V/T =      2.002545
@    MULPOP   N      -1.02; H       0.26; H       0.28; H       0.36; O      -0.60; O      -0.84; O      -0.71; O      -0.62; H       0.31; H       0.32; 
@             H       0.35; H       0.50; H       0.41; H       0.34; H       0.34; H       0.33; 

 DIIS Fock eigenvalues in symmetry 1
      -20.55612      -20.55526      -20.51618      -20.50183      -15.52297
       -1.32443       -1.32376       -1.29214       -1.27862       -1.15364
       -0.70640       -0.70414       -0.65793       -0.65289       -0.64748
       -0.63294       -0.56428       -0.56136       -0.55651       -0.54224
       -0.51206       -0.50146       -0.46875       -0.46439       -0.41633
        0.11464        0.14676        0.16160        0.21120        0.22318
        0.23912        0.26987        0.27320        0.28961        0.29531
        0.30814        0.33160        0.34270        0.35977        0.37229
        0.38475        0.44689        0.47879        0.57958        0.58915
        0.59653        0.61044        0.62148        0.64171        0.66301
        0.68866        0.72099        0.73232        0.86171        0.97697
        0.99795        1.00840        1.03994        1.04240        1.04868
        1.06379        1.10206        1.12008        1.13015        1.16053
        1.16826        1.18673        1.19453        1.21561        1.30207
        1.33525        1.36738        1.41766        1.44531        1.48259
        1.49641        1.52375        1.53187        1.55446        1.58332
        1.61222        1.65762        1.69841        1.72180        1.75769
        1.76163        1.78786        1.80267        1.83362        1.84768
        1.89418        1.93392        1.96782        1.98567        2.11049
        2.13838        2.25996        2.27089        2.27159        2.30706
        2.33978        2.34388        2.34910        2.39290        2.42760
        2.51911        2.66694        2.69174        2.70158        2.72622
        2.76003        2.78271        2.80737        2.86382        2.87939
        2.90764        2.97493        3.06150        3.07625        3.24326
        3.29688        3.39577        3.42182        3.48874        3.50362
        3.52803        3.52864        3.54912        3.55149        3.55856
        3.58910        3.60867        3.61587        3.70250        3.71396
        3.99659        4.03004        4.06228        4.06901        4.17567
        4.18682        4.22702        4.27617        4.77565        5.29091
        5.31920        5.37676        5.39620        5.40292        5.42131
        5.72312        5.74913        5.80051        5.84878        6.12805
        6.13394        6.13628        6.21515       37.14659       51.50881
       51.51807       51.55773       51.62261
 Time used in FCKEIG, thr_jaco:   9.32D-02  2.40D-02  1.68D-08
 CPU and wall times used in FCKEIG, THR_FCKEIG:   9.33D-02  2.40D-02  3.94D-06
 -----------------------------------------------------------------------------

 *** DIIS iteration number    9
 RDSUPM called. NFMAT, ISYMDM(1:NFMAT)                     1
                     1

 ITDIIS, energy, error norm, change in energy, scr.thr., difden:
@ DIIS iter.   9    -360.808382746        1.24048D-04   -2.08D-08  -20    F

 (DIIS_RED) Control Parameters C2DIIS =         F NEVC =    8


 (DIIS_RED) B matrix:

               Column   1     Column   2     Column   3     Column   4     Column   5     Column   6
       1       0.00000002
       2      -0.00000297     1.09481339
       3      -0.00000007    -0.01507891     0.16320576
       4       0.00000004     0.08961667    -0.00292602     0.01146019
       5       0.00000017     0.00762362     0.00547129     0.00109897     0.00072571
       6       0.00000006    -0.00008638     0.00088798     0.00045805     0.00006686     0.00010361
       7       0.00000009    -0.00007322     0.00008016     0.00000097     0.00004092     0.00000337
       8       0.00000002    -0.00000616     0.00000520     0.00000258     0.00000096     0.00000169

               Column   7     Column   8
       7       0.00000526
       8       0.00000042     0.00000015
    ==== End of matrix output ====

 DIIS C vector; C2DIIS = F, LAMBDA = -1.12D-08
    0.939777    0.000041   -0.000191   -0.001039    0.005771    0.002285   -0.066687    0.120043
* Read MO coefficients from SIRIUS.RST with label "NEWORB  " and header info: 20Dec18  DIIS   9
      Virial theorem: -V/T =      2.002546
@    MULPOP   N      -1.02; H       0.26; H       0.28; H       0.36; O      -0.60; O      -0.84; O      -0.71; O      -0.62; H       0.31; H       0.32; 
@             H       0.35; H       0.50; H       0.41; H       0.34; H       0.34; H       0.33; 

 DIIS Fock eigenvalues in symmetry 1
      -20.55614      -20.55528      -20.51623      -20.50182      -15.52298
       -1.32443       -1.32377       -1.29216       -1.27862       -1.15364
       -0.70641       -0.70414       -0.65793       -0.65290       -0.64748
       -0.63294       -0.56429       -0.56136       -0.55652       -0.54225
       -0.51206       -0.50146       -0.46874       -0.46441       -0.41633
        0.11464        0.14676        0.16160        0.21120        0.22318
        0.23912        0.26987        0.27320        0.28961        0.29531
        0.30814        0.33160        0.34270        0.35977        0.37229
        0.38475        0.44689        0.47879        0.57957        0.58915
        0.59653        0.61044        0.62147        0.64171        0.66301
        0.68867        0.72099        0.73232        0.86171        0.97697
        0.99794        1.00840        1.03994        1.04239        1.04868
        1.06379        1.10206        1.12008        1.13015        1.16053
        1.16825        1.18672        1.19453        1.21561        1.30207
        1.33525        1.36737        1.41766        1.44531        1.48259
        1.49641        1.52375        1.53187        1.55446        1.58331
        1.61222        1.65761        1.69841        1.72180        1.75770
        1.76163        1.78786        1.80267        1.83362        1.84767
        1.89418        1.93392        1.96782        1.98567        2.11048
        2.13838        2.25996        2.27089        2.27158        2.30706
        2.33977        2.34388        2.34910        2.39290        2.42759
        2.51911        2.66694        2.69173        2.70158        2.72622
        2.76003        2.78271        2.80737        2.86382        2.87939
        2.90764        2.97494        3.06149        3.07625        3.24326
        3.29687        3.39576        3.42181        3.48874        3.50361
        3.52802        3.52863        3.54912        3.55147        3.55855
        3.58910        3.60867        3.61586        3.70251        3.71394
        3.99660        4.03002        4.06228        4.06900        4.17566
        4.18681        4.22702        4.27615        4.77565        5.29091
        5.31918        5.37677        5.39619        5.40290        5.42130
        5.72311        5.74911        5.80050        5.84878        6.12804
        6.13393        6.13625        6.21516       37.14658       51.50879
       51.51805       51.55768       51.62263
 Time used in FCKEIG, thr_jaco:   9.35D-02  2.30D-02  5.28D-09
 CPU and wall times used in FCKEIG, THR_FCKEIG:   9.36D-02  2.30D-02  1.24D-06
 -----------------------------------------------------------------------------

 *** DIIS iteration number   10
 RDSUPM called. NFMAT, ISYMDM(1:NFMAT)                     1
                     1

 ITDIIS, energy, error norm, change in energy, scr.thr., difden:
@ DIIS iter.  10    -360.808382747        4.83926D-05   -1.41D-09  -20    F

 (DIIS_RED) Control Parameters C2DIIS =         F NEVC =    8


 (DIIS_RED) B matrix:

               Column   1     Column   2     Column   3     Column   4     Column   5     Column   6
       1       0.00000002
       2      -0.00000000     0.00000000
       3      -0.00000007     0.00000027     0.16320576
       4       0.00000004    -0.00000013    -0.00292602     0.01146019
       5       0.00000017     0.00000002     0.00547129     0.00109897     0.00072571
       6       0.00000006     0.00000002     0.00088798     0.00045805     0.00006686     0.00010361
       7       0.00000009     0.00000002     0.00008016     0.00000097     0.00004092     0.00000337
       8       0.00000002     0.00000001     0.00000520     0.00000258     0.00000096     0.00000169

               Column   7     Column   8
       7       0.00000526
       8       0.00000042     0.00000015
    ==== End of matrix output ====

 DIIS C vector; C2DIIS = F, LAMBDA = -7.63D-10
    0.154548    0.963948    0.000010    0.000027   -0.000591    0.001758    0.007598   -0.127297
* Read MO coefficients from SIRIUS.RST with label "NEWORB  " and header info: 20Dec18  DIIS  10
      Virial theorem: -V/T =      2.002546
@    MULPOP   N      -1.02; H       0.26; H       0.28; H       0.36; O      -0.60; O      -0.84; O      -0.71; O      -0.62; H       0.31; H       0.32; 
@             H       0.35; H       0.50; H       0.41; H       0.34; H       0.34; H       0.33; 

 DIIS Fock eigenvalues in symmetry 1
      -20.55613      -20.55527      -20.51622      -20.50182      -15.52297
       -1.32443       -1.32377       -1.29215       -1.27862       -1.15364
       -0.70640       -0.70414       -0.65793       -0.65289       -0.64748
       -0.63294       -0.56429       -0.56136       -0.55652       -0.54225
       -0.51206       -0.50146       -0.46874       -0.46440       -0.41633
        0.11464        0.14676        0.16160        0.21120        0.22318
        0.23912        0.26987        0.27320        0.28961        0.29531
        0.30815        0.33160        0.34270        0.35977        0.37229
        0.38475        0.44689        0.47879        0.57957        0.58915
        0.59653        0.61044        0.62147        0.64171        0.66301
        0.68867        0.72099        0.73232        0.86171        0.97697
        0.99795        1.00840        1.03994        1.04239        1.04868
        1.06379        1.10206        1.12008        1.13015        1.16053
        1.16825        1.18673        1.19453        1.21561        1.30207
        1.33525        1.36737        1.41766        1.44531        1.48259
        1.49641        1.52375        1.53187        1.55446        1.58331
        1.61222        1.65761        1.69841        1.72180        1.75770
        1.76163        1.78786        1.80267        1.83362        1.84767
        1.89418        1.93392        1.96782        1.98567        2.11048
        2.13838        2.25996        2.27089        2.27159        2.30706
        2.33977        2.34388        2.34910        2.39290        2.42759
        2.51911        2.66694        2.69173        2.70158        2.72622
        2.76003        2.78271        2.80737        2.86382        2.87939
        2.90764        2.97494        3.06149        3.07625        3.24326
        3.29687        3.39577        3.42181        3.48875        3.50361
        3.52803        3.52864        3.54912        3.55148        3.55855
        3.58910        3.60867        3.61586        3.70251        3.71395
        3.99660        4.03003        4.06228        4.06901        4.17566
[...]
       3      -0.36075444     0.85742898    -0.36697653
    ==== End of matrix output ====


 CCSD  Transition strength matrix for state nr. 13 of symmetry 1
 CCSD  excitation energy:15.08105005

 Gauge: length

               Column   1     Column   2     Column   3
       1     6.880478D-05  -6.192406D-06   7.184458D-06
       2    -6.192406D-06   5.239237D-07  -6.582259D-07
       3     7.184458D-06  -6.582259D-07   7.461380D-07
    ==== End of matrix output ====

 Principal values of diagonalized transition strength matrix:

             a.u.               
 1      -0.00000004
 2      -0.00000000
 3       0.00007011

 Principal axis of diagonalized transition strength matrix:


               Column   1     Column   2     Column   3
       1       0.04974764    -0.12716608     0.99063311
       2       0.94109594    -0.32618098    -0.08913134
       3       0.33446017     0.93671487     0.10344875
    ==== End of matrix output ====


 CCSD   oscillator strength matrix for state nr. 13 of symmetry 1
 CCSD  excitation energy:15.08105005


               Column   1     Column   2     Column   3
       1     6.917655D-04  -6.225866D-05   7.223278D-05
       2    -6.225866D-05   5.267547D-06  -6.617825D-06
       3     7.223278D-05  -6.617825D-06   7.501696D-06
    ==== End of matrix output ====

 Principal values of diagonalized oscillator strength matrix:

             a.u.               
 1      -0.00000038
 2       0.00000000
 3       0.00070491

 Principal axis of diagonalized oscillator strength matrix:


               Column   1     Column   2     Column   3
       1       0.04974764    -0.12716608     0.99063311
       2       0.94109594    -0.32618098    -0.08913134
       3       0.33446017     0.93671487     0.10344875
    ==== End of matrix output ====


 CCSD  Transition strength matrix for state nr. 14 of symmetry 1
 CCSD  excitation energy:15.08276341

 Gauge: length

               Column   1     Column   2     Column   3
       1     2.129068D-05  -5.894420D-05  -8.248570D-06
       2    -5.894420D-05   1.630433D-04   2.276010D-05
       3    -8.248570D-06   2.276010D-05   3.155787D-06
    ==== End of matrix output ====

 Principal values of diagonalized transition strength matrix:

             a.u.               
 1      -0.00000004
 2      -0.00000000
 3       0.00018753

 Principal axis of diagonalized transition strength matrix:


               Column   1     Column   2     Column   3
       1       0.64659145     0.68432334    -0.33707723
       2       0.12876702     0.33762139     0.93243276
       3       0.75188998    -0.64630748     0.13018483
    ==== End of matrix output ====


 CCSD   oscillator strength matrix for state nr. 14 of symmetry 1
 CCSD  excitation energy:15.08276341


               Column   1     Column   2     Column   3
       1       0.00021408    -0.00059269    -0.00008294
       2      -0.00059269     0.00163943     0.00022886
       3      -0.00008294     0.00022886     0.00003173
    ==== End of matrix output ====

 Principal values of diagonalized oscillator strength matrix:

             a.u.               
 1      -0.00000040
 2       0.00000000
 3       0.00188564

 Principal axis of diagonalized oscillator strength matrix:


               Column   1     Column   2     Column   3
       1       0.64659145     0.68432334    -0.33707723
       2       0.12876702     0.33762139     0.93243276
       3       0.75188998    -0.64630748     0.13018483
    ==== End of matrix output ====


 CCSD  Transition strength matrix for state nr. 15 of symmetry 1
 CCSD  excitation energy:15.12327387

 Gauge: length

               Column   1     Column   2     Column   3
       1     2.022236D-04  -2.247433D-04   7.795743D-05
       2    -2.247433D-04   2.497708D-04  -8.663874D-05
       3     7.795743D-05  -8.663874D-05   3.005262D-05
    ==== End of matrix output ====

 Principal values of diagonalized transition strength matrix:

             a.u.               
 1      -0.00000000
 2       0.00000000
 3       0.00048205

 Principal axis of diagonalized transition strength matrix:


               Column   1     Column   2     Column   3
       1      -0.62000970     0.44280680    -0.64769600
       2      -0.30750217     0.62233137     0.71982364
       3       0.72182434     0.64546557    -0.24968744
    ==== End of matrix output ====


 CCSD   oscillator strength matrix for state nr. 15 of symmetry 1
 CCSD  excitation energy:15.12327387


               Column   1     Column   2     Column   3
       1       0.00203886    -0.00226590     0.00078598
       2      -0.00226590     0.00251823    -0.00087351
       3       0.00078598    -0.00087351     0.00030300
    ==== End of matrix output ====

 Principal values of diagonalized oscillator strength matrix:

             a.u.               
 1      -0.00000000
 2      -0.00000000
 3       0.00486009

 Principal axis of diagonalized oscillator strength matrix:


               Column   1     Column   2     Column   3
       1      -0.62000970     0.44280680    -0.64769600
       2      -0.30750217     0.62233137     0.71982364
       3       0.72182434     0.64546557    -0.24968744
    ==== End of matrix output ====

  Total time for    135 linear response residues:      19.56 seconds.
  

 *******************************************************************************
 *******************************************************************************
 *                                                                             *
 *                                                                             *
 *                   SUMMARY OF COUPLED CLUSTER CALCULATION                    *
 *                                                                             *
 *                                                                             *
 *******************************************************************************
 *******************************************************************************

                                                                                
                                                                                
            Total SCF   energy:                  -360.8083827472                
            Total MP2   energy:                  -361.9155820429                
            Total CCSD  energy:                  -361.9537248320                
                                                                                
                                                                                
            Total SCF   energy:                  -360.8083827472                
            Total RSTAR energy:                  -361.9537248320                
            Total CCSD  energy:                  -361.9537727956                
                                                                                
                                                                                
            Total SCF   energy:                  -360.8083827472                
            Total RSTAR energy:                  -361.9537727956                
            Total CCSD  energy:                  -361.9537749676                
                                                                                
                                                                                
            Total SCF   energy:                  -360.8083827472                
            Total RSTAR energy:                  -361.9537749676                
            Total CCSD  energy:                  -361.9537750795                
                                                                                
                                                                                
            Total SCF   energy:                  -360.8083827472                
            Total RSTAR energy:                  -361.9537750795                
            Total CCSD  energy:                  -361.9537750856                
            CCSD Total  energy:                  -362.3996341346                
            CCSD E(PE-CC)     :                    -0.4411889818                
                                                                                
                                                                                
 +=============================================================================+
 |  sym. | Exci.  |        CCSD       Excitation energies            | ||T1||  |
 |(spin, |        +------------------------------------------------------------+
 | spat) |        |     Hartree    |       eV.      |     cm-1       |    %    |
 +=============================================================================+
 | ^1A   |    1   |    14.8179206  |     403.21613  |   3252157.631  |  88.60  |
 | ^1A   |    2   |    14.8814174  |     404.94397  |   3266093.568  |  88.82  |
 | ^1A   |    3   |    14.9021106  |     405.50706  |   3270635.209  |  88.80  |
 | ^1A   |    4   |    14.9167294  |     405.90486  |   3273843.660  |  88.58  |
 | ^1A   |    5   |    14.9432714  |     406.62710  |   3279668.956  |  88.31  |
 | ^1A   |    6   |    14.9629892  |     407.16365  |   3283996.510  |  88.30  |
 | ^1A   |    7   |    14.9969446  |     408.08762  |   3291448.852  |  88.46  |
 | ^1A   |    8   |    15.0067586  |     408.35467  |   3293602.779  |  88.26  |
 | ^1A   |    9   |    15.0150359  |     408.57991  |   3295419.441  |  88.53  |
 | ^1A   |   10   |    15.0381091  |     409.20776  |   3300483.410  |  88.83  |
 | ^1A   |   11   |    15.0555146  |     409.68139  |   3304303.489  |  88.36  |
 | ^1A   |   12   |    15.0650038  |     409.93961  |   3306386.135  |  88.33  |
 | ^1A   |   13   |    15.0810500  |     410.37625  |   3309907.869  |  88.15  |
 | ^1A   |   14   |    15.0827634  |     410.42287  |   3310283.908  |  88.21  |
 | ^1A   |   15   |    15.1232739  |     411.52522  |   3319174.927  |  88.17  |
 +=============================================================================+
                                                                                
                                                                                
     Total energies in Hartree:                                                 
             1 ^1A       -347.1405245518                                        
             2 ^1A       -347.0770277502                                        
             3 ^1A       -347.0563345142                                        
             4 ^1A       -347.0417157325                                        
             5 ^1A       -347.0151737349                                        
             6 ^1A       -346.9954559465                                        
             7 ^1A       -346.9615005784                                        
             8 ^1A       -346.9516865643                                        
             9 ^1A       -346.9434092407                                        
            10 ^1A       -346.9203361023                                        
            11 ^1A       -346.9029305417                                        
            12 ^1A       -346.8934413081                                        
            13 ^1A       -346.8773951076                                        
            14 ^1A       -346.8756817466                                        
            15 ^1A       -346.8351712852                                        
                                                                                
                                                                                
 +=============================================================================+
 |  sym. | Exci.  |        CCSD       Length   Gauge Oscillator Strength       |
 |(spin, |        +------------------------------------------------------------+
 | spat) |        | Dipole Strength(a.u.) | Oscillator strength  | Direction   |
 +=============================================================================+
 | ^1A   |    1   |        0.0007251      |      0.0071625       |  (Y,Z)      |
 | ^1A   |    2   |        0.0026868      |      0.0266556       |  (Y,Z)      |
 | ^1A   |    3   |        0.0016822      |      0.0167119       |  (Y,Z)      |
 | ^1A   |    4   |        0.0013709      |      0.0136329       |  (Y,Z)      |
 | ^1A   |    5   |        0.0004897      |      0.0048784       |  (Y,Z)      |
 | ^1A   |    6   |        0.0003422      |      0.0034134       |  (Y,Z)      |
 | ^1A   |    7   |        0.0002310      |      0.0023093       |  (Y,Z)      |
 | ^1A   |    8   |        0.0002245      |      0.0022459       |  (Y,Z)      |
 | ^1A   |    9   |        0.0012014      |      0.0120256       |  (Y,Z)      |
 | ^1A   |   10   |        0.0017675      |      0.0177201       |  (Y,Z)      |
 | ^1A   |   11   |        0.0003359      |      0.0033717       |  (Y,Z)      |
 | ^1A   |   12   |        0.0003374      |      0.0033883       |  (Y,Z)      |
 | ^1A   |   13   |        0.0000701      |      0.0007045       |  (Y,Z)      |
 | ^1A   |   14   |        0.0001875      |      0.0018852       |  (Y,Z)      |
 | ^1A   |   15   |        0.0004820      |      0.0048601       |  (Y,Z)      |
 +=============================================================================+

  1 a.u. =        27.21138 eV.  
  1 a.u. =    219474.62934 cm-1.
  

 *******************************************************************************
 *******************************************************************************
 *                                                                             *
 *                                                                             *
 *                      END OF COUPLED CLUSTER CALCULATION                     *
 *                                                                             *
 *                                                                             *
 *******************************************************************************
 *******************************************************************************


 CPU and wall time for CC :  215164.912   82516.616

 
     Date and time (Linux)  : Fri Dec 21 04:45:05 2018
     Host name              : s71p32.deic.sdu.dk                      


                      .-------------------------------------.
                      | End of Coupled Cluster Section (CC) |
                      `-------------------------------------'

  Total CPU  time used in DALTON:  59 hours 50 minutes 16 seconds
  Total wall time used in DALTON:  22 hours 57 minutes 27 seconds

 
     Date and time (Linux)  : Fri Dec 21 04:45:05 2018
     Host name              : s71p32.deic.sdu.dk                      
  

 +---------------------------------------------------------+ 
 | List of selected calculated molecular properties (a.u.) | 
 +---------------------------------------------------------+ 

  Properties are read from unit number                      4

 CCSD       properties :
 #  1 1 PE-CCSD  Ground state Energy =    -362.3996341346
 #  2 1 E(PE-CC) Ground state Energy =      -0.4411889818
 #  3 1 Sy: 1 Sp: 1 Exc:  1 E_tot:   -347.1405245518 w:     14.8179206009 E_grs:   -361.9584451528
 #  4 1 Exctot   Excited state Energy =    -347.1405245518
 #  5 1 Sy: 1 Sp: 1 Exc:  2 E_tot:   -347.0770277502 w:     14.8814174025 E_grs:   -361.9584451528
 #  6 1 Exctot   Excited state Energy =    -347.0770277502
 #  7 1 Sy: 1 Sp: 1 Exc:  3 E_tot:   -347.0563345142 w:     14.9021106385 E_grs:   -361.9584451528
 #  8 1 Exctot   Excited state Energy =    -347.0563345142
 #  9 1 Sy: 1 Sp: 1 Exc:  4 E_tot:   -347.0417157325 w:     14.9167294202 E_grs:   -361.9584451528
 # 10 1 Exctot   Excited state Energy =    -347.0417157325
 # 11 1 Sy: 1 Sp: 1 Exc:  5 E_tot:   -347.0151737349 w:     14.9432714179 E_grs:   -361.9584451528
 # 12 1 Exctot   Excited state Energy =    -347.0151737349
 # 13 1 Sy: 1 Sp: 1 Exc:  6 E_tot:   -346.9954559465 w:     14.9629892063 E_grs:   -361.9584451528
 # 14 1 Exctot   Excited state Energy =    -346.9954559465
 # 15 1 Sy: 1 Sp: 1 Exc:  7 E_tot:   -346.9615005784 w:     14.9969445744 E_grs:   -361.9584451528
 # 16 1 Exctot   Excited state Energy =    -346.9615005784
 # 17 1 Sy: 1 Sp: 1 Exc:  8 E_tot:   -346.9516865643 w:     15.0067585884 E_grs:   -361.9584451528
 # 18 1 Exctot   Excited state Energy =    -346.9516865643
 # 19 1 Sy: 1 Sp: 1 Exc:  9 E_tot:   -346.9434092407 w:     15.0150359121 E_grs:   -361.9584451528
 # 20 1 Exctot   Excited state Energy =    -346.9434092407
 # 21 1 Sy: 1 Sp: 1 Exc: 10 E_tot:   -346.9203361023 w:     15.0381090505 E_grs:   -361.9584451528
 # 22 1 Exctot   Excited state Energy =    -346.9203361023
 # 23 1 Sy: 1 Sp: 1 Exc: 11 E_tot:   -346.9029305417 w:     15.0555146110 E_grs:   -361.9584451528
 # 24 1 Exctot   Excited state Energy =    -346.9029305417
 # 25 1 Sy: 1 Sp: 1 Exc: 12 E_tot:   -346.8934413081 w:     15.0650038447 E_grs:   -361.9584451528
 # 26 1 Exctot   Excited state Energy =    -346.8934413081
 # 27 1 Sy: 1 Sp: 1 Exc: 13 E_tot:   -346.8773951076 w:     15.0810500452 E_grs:   -361.9584451528
 # 28 1 Exctot   Excited state Energy =    -346.8773951076
 # 29 1 Sy: 1 Sp: 1 Exc: 14 E_tot:   -346.8756817466 w:     15.0827634061 E_grs:   -361.9584451528
 # 30 1 Exctot   Excited state Energy =    -346.8756817466
 # 31 1 Sy: 1 Sp: 1 Exc: 15 E_tot:   -346.8351712852 w:     15.1232738675 E_grs:   -361.9584451528
 # 32 1 Exctot   Excited state Energy =    -346.8351712852
 # 33 1 |<O|XDIPLEN |i(14.817921)>| =     0.00419988
 # 35 1 |<O|XDIPLEN |i(14.881417)>| =     0.01310173
 # 37 1 |<O|XDIPLEN |i(14.902111)>| =     0.03825648
 # 39 1 |<O|XDIPLEN |i(14.916729)>| =     0.00800865
 # 41 1 |<O|XDIPLEN |i(14.943271)>| =     0.01693207
 # 43 1 |<O|XDIPLEN |i(14.962989)>| =     0.01356098
 # 45 1 |<O|XDIPLEN |i(14.996945)>| =     0.00046406
 # 47 1 |<O|XDIPLEN |i(15.006759)>| =     0.00216526
 # 49 1 |<O|XDIPLEN |i(15.015036)>| =     0.01335178
 # 51 1 |<O|XDIPLEN |i(15.038109)>| =     0.03702945
 # 53 1 |<O|XDIPLEN |i(15.055515)>| =     0.00040268
 # 55 1 |<O|XDIPLEN |i(15.065004)>| =     0.01635987
 # 57 1 |<O|XDIPLEN |i(15.081050)>| =     0.00829486
 # 59 1 |<O|XDIPLEN |i(15.082763)>| =     0.00461418
 # 61 1 |<O|XDIPLEN |i(15.123274)>| =     0.01422053
 # 63 1 |<O|YDIPLEN |i(14.817921)>| =     0.02362214
 # 65 1 |<O|YDIPLEN |i(14.881417)>| =     0.03124188
 # 67 1 |<O|YDIPLEN |i(14.902111)>| =     0.00454856
 # 69 1 |<O|YDIPLEN |i(14.916729)>| =     0.01908737
 # 71 1 |<O|YDIPLEN |i(14.943271)>| =     0.01336255
 # 73 1 |<O|YDIPLEN |i(14.962989)>| =     0.00549861
 # 75 1 |<O|YDIPLEN |i(14.996945)>| =     0.01319092
 # 77 1 |<O|YDIPLEN |i(15.006759)>| =     0.01444835
 # 79 1 |<O|YDIPLEN |i(15.015036)>| =     0.01233756
 # 81 1 |<O|YDIPLEN |i(15.038109)>| =     0.01920402
 # 83 1 |<O|YDIPLEN |i(15.055515)>| =     0.00009084
 # 85 1 |<O|YDIPLEN |i(15.065004)>| =     0.00492842
 # 87 1 |<O|YDIPLEN |i(15.081050)>| =     0.00072383
 # 89 1 |<O|YDIPLEN |i(15.082763)>| =     0.01276884
 # 91 1 |<O|YDIPLEN |i(15.123274)>| =     0.01580414
 # 93 1 |<O|ZDIPLEN |i(14.817921)>| =     0.01222323
 # 95 1 |<O|ZDIPLEN |i(14.881417)>| =     0.03923120
 # 97 1 |<O|ZDIPLEN |i(14.902111)>| =     0.01406828
 # 99 1 |<O|ZDIPLEN |i(14.916729)>| =     0.03069906
 #101 1 |<O|ZDIPLEN |i(14.943271)>| =     0.00494362
 #103 1 |<O|ZDIPLEN |i(14.962989)>| =     0.01131603
 #105 1 |<O|ZDIPLEN |i(14.996945)>| =     0.00753399
 #107 1 |<O|ZDIPLEN |i(15.006759)>| =     0.00332326
 #109 1 |<O|ZDIPLEN |i(15.015036)>| =     0.02951044
 #111 1 |<O|ZDIPLEN |i(15.038109)>| =     0.00524798
 #113 1 |<O|ZDIPLEN |i(15.055515)>| =     0.01832362
 #115 1 |<O|ZDIPLEN |i(15.065004)>| =     0.00674048
 #117 1 |<O|ZDIPLEN |i(15.081050)>| =     0.00086379
 #119 1 |<O|ZDIPLEN |i(15.082763)>| =     0.00177645
 #121 1 |<O|ZDIPLEN |i(15.123274)>| =     0.00548203

 THE_END   
